REMARK  Name = A1JV9
REMARK  4 active torsions:
REMARK  status: ('A' for Active; 'I' for Inactive)
REMARK    1  A    between atoms: C_6  and  C_20
REMARK    2  A    between atoms: C_10  and  N_25
REMARK    3  A    between atoms: C_11  and  C_19
REMARK    4  A    between atoms: C_19  and  O_30
REMARK                            x       y       z     vdW  Elec       q    Type
REMARK                         _______ _______ _______ _____ _____    ______ ____
ROOT
ATOM      1  C   UNL     1       1.263  -0.760  -0.172  0.00  0.00    +0.183 A 
ATOM      2  C   UNL     1       0.974  -3.029   0.120  0.00  0.00    +0.155 A 
ATOM      3  C   UNL     1      -0.392  -2.867  -0.023  0.00  0.00    +0.181 A 
ATOM      4  C   UNL     1      -0.892  -1.579  -0.247  0.00  0.00    +0.158 A 
ATOM      5  F   UNL     1      -1.225  -3.928   0.051  0.00  0.00    -0.200 F 
ATOM      6  N   UNL     1       1.764  -1.969   0.041  0.00  0.00    -0.231 NA
ATOM      7  N   UNL     1      -0.042  -0.562  -0.315  0.00  0.00    -0.208 NA
ATOM      8  N   UNL     1      -2.254  -1.369  -0.398  0.00  0.00    -0.323 N 
ATOM      9  H   UNL     1      -2.869  -2.118  -0.348  0.00  0.00    +0.148 HD
ENDROOT
BRANCH   1  15
ATOM     10  C   UNL     1       5.907  -0.314   0.197  0.00  0.00    +0.142 A 
ATOM     11  C   UNL     1       4.570  -0.659   0.120  0.00  0.00    +0.053 A 
ATOM     12  C   UNL     1       3.640   0.361  -0.105  0.00  0.00    +0.052 A 
ATOM     13  C   UNL     1       4.090   1.687  -0.246  0.00  0.00    +0.156 A 
ATOM     14  C   UNL     1       6.278   1.017   0.049  0.00  0.00    +0.151 A 
ATOM     15  C   UNL     1       2.181   0.399  -0.246  0.00  0.00    +0.139 A 
ATOM     16  F   UNL     1       6.843  -1.262   0.419  0.00  0.00    -0.204 F 
ATOM     17  N   UNL     1       5.386   1.960  -0.163  0.00  0.00    -0.233 NA
ATOM     18  N   UNL     1       2.978   2.460  -0.455  0.00  0.00    -0.260 N 
ATOM     19  N   UNL     1       1.839   1.649  -0.450  0.00  0.00    -0.168 NA
ATOM     20  H   UNL     1       2.980   3.421  -0.587  0.00  0.00    +0.191 HD
ENDBRANCH   1  15
BRANCH   8  21
ATOM     21  C   UNL     1      -2.765  -0.016  -0.632  0.00  0.00    +0.089 C 
ATOM     22  C   UNL     1      -2.868   0.717   0.701  0.00  0.00    +0.121 C 
ATOM     23  C   UNL     1      -4.308   1.157   0.979  0.00  0.00    +0.008 C 
ATOM     24  C   UNL     1      -5.200  -0.108   0.992  0.00  0.00    -0.003 C 
ATOM     25  C   UNL     1      -5.095  -0.855  -0.365  0.00  0.00    -0.002 C 
ATOM     26  C   UNL     1      -4.131  -0.107  -1.317  0.00  0.00    +0.013 C 
ATOM     27  C   UNL     1      -4.674   1.313  -1.511  0.00  0.00    +0.006 C 
ATOM     28  C   UNL     1      -4.777   2.047  -0.177  0.00  0.00    +0.005 C 
ATOM     29  C   UNL     1      -4.475  -1.452   0.900  0.00  0.00    +0.008 C 
BRANCH  22  30
ATOM     30  C   UNL     1      -1.978   1.933   0.667  0.00  0.00    +0.310 C 
ATOM     31  O   UNL     1      -2.453   3.034   0.816  0.00  0.00    -0.251 OA
BRANCH  30  32
ATOM     32  O   UNL     1      -0.658   1.793   0.470  0.00  0.00    -0.480 OA
ATOM     33  H   UNL     1      -0.127   2.601   0.455  0.00  0.00    +0.295 HD
ENDBRANCH  30  32
ENDBRANCH  22  30
ENDBRANCH   8  21
TORSDOF 4
