MODEL 1
REMARK VINA RESULT:   -10.640      0.000      0.000
REMARK INTER + INTRA:         -14.030
REMARK INTER:                 -12.993
REMARK INTRA:                  -1.037
REMARK UNBOUND:                -1.213
REMARK  Name = A1JV9
REMARK  4 active torsions:
REMARK  status: ('A' for Active; 'I' for Inactive)
REMARK    1  A    between atoms: C_6  and  C_20
REMARK    2  A    between atoms: C_10  and  N_25
REMARK    3  A    between atoms: C_11  and  C_19
REMARK    4  A    between atoms: C_19  and  O_30
REMARK                            x       y       z     vdW  Elec       q    Type
REMARK                         _______ _______ _______ _____ _____    ______ ____
ROOT
ATOM      1  C   UNL     1     -38.057  -1.857  -2.967  0.00  0.00    +0.183 A 
ATOM      2  C   UNL     1     -38.924  -3.793  -2.063  0.00  0.00    +0.155 A 
ATOM      3  C   UNL     1     -39.506  -4.093  -3.281  0.00  0.00    +0.181 A 
ATOM      4  C   UNL     1     -39.323  -3.204  -4.347  0.00  0.00    +0.158 A 
ATOM      5  F   UNL     1     -40.235  -5.220  -3.439  0.00  0.00    -0.200 F 
ATOM      6  N   UNL     1     -38.215  -2.681  -1.941  0.00  0.00    -0.231 NA
ATOM      7  N   UNL     1     -38.599  -2.109  -4.153  0.00  0.00    -0.208 NA
ATOM      8  N   UNL     1     -39.886  -3.465  -5.586  0.00  0.00    -0.323 N 
ATOM      9  H   UNL     1     -40.413  -4.269  -5.720  0.00  0.00    +0.148 HD
ENDROOT
BRANCH   1  15
ATOM     10  C   UNL     1     -37.331   1.916  -5.640  0.00  0.00    +0.142 A 
ATOM     11  C   UNL     1     -37.672   0.731  -5.014  0.00  0.00    +0.053 A 
ATOM     12  C   UNL     1     -37.142   0.483  -3.744  0.00  0.00    +0.052 A 
ATOM     13  C   UNL     1     -36.293   1.435  -3.151  0.00  0.00    +0.156 A 
ATOM     14  C   UNL     1     -36.485   2.810  -4.994  0.00  0.00    +0.151 A 
ATOM     15  C   UNL     1     -37.263  -0.621  -2.785  0.00  0.00    +0.139 A 
ATOM     16  F   UNL     1     -37.812   2.199  -6.870  0.00  0.00    -0.204 F 
ATOM     17  N   UNL     1     -35.999   2.556  -3.799  0.00  0.00    -0.233 NA
ATOM     18  N   UNL     1     -35.932   0.935  -1.928  0.00  0.00    -0.260 N 
ATOM     19  N   UNL     1     -36.537  -0.311  -1.737  0.00  0.00    -0.168 NA
ATOM     20  H   UNL     1     -35.348   1.376  -1.292  0.00  0.00    +0.191 HD
ENDBRANCH   1  15
BRANCH   8  21
ATOM     21  C   UNL     1     -39.687  -2.527  -6.694  0.00  0.00    +0.089 C 
ATOM     22  C   UNL     1     -40.933  -2.520  -7.573  0.00  0.00    +0.121 C 
ATOM     23  C   UNL     1     -40.597  -2.935  -9.008  0.00  0.00    +0.008 C 
ATOM     24  C   UNL     1     -39.980  -4.354  -8.963  0.00  0.00    -0.003 C 
ATOM     25  C   UNL     1     -38.712  -4.362  -8.067  0.00  0.00    -0.002 C 
ATOM     26  C   UNL     1     -38.451  -2.949  -7.493  0.00  0.00    +0.013 C 
ATOM     27  C   UNL     1     -38.284  -1.987  -8.675  0.00  0.00    +0.006 C 
ATOM     28  C   UNL     1     -39.531  -1.980  -9.555  0.00  0.00    +0.005 C 
ATOM     29  C   UNL     1     -39.994  -5.059  -7.605  0.00  0.00    +0.008 C 
BRANCH  22  30
ATOM     30  C   UNL     1     -41.522  -1.133  -7.586  0.00  0.00    +0.310 C 
ATOM     31  O   UNL     1     -41.021  -0.258  -6.920  0.00  0.00    -0.251 OA
BRANCH  30  32
ATOM     32  O   UNL     1     -42.603  -0.870  -8.335  0.00  0.00    -0.480 OA
ATOM     33  H   UNL     1     -43.233  -1.592  -8.469  0.00  0.00    +0.295 HD
ENDBRANCH  30  32
ENDBRANCH  22  30
ENDBRANCH   8  21
TORSDOF 4
ENDMDL
MODEL 2
REMARK VINA RESULT:    -8.642      3.459      4.964
REMARK INTER + INTRA:         -11.623
REMARK INTER:                 -10.322
REMARK INTRA:                  -1.301
REMARK UNBOUND:                -1.213
REMARK  Name = A1JV9
REMARK  4 active torsions:
REMARK  status: ('A' for Active; 'I' for Inactive)
REMARK    1  A    between atoms: C_6  and  C_20
REMARK    2  A    between atoms: C_10  and  N_25
REMARK    3  A    between atoms: C_11  and  C_19
REMARK    4  A    between atoms: C_19  and  O_30
REMARK                            x       y       z     vdW  Elec       q    Type
REMARK                         _______ _______ _______ _____ _____    ______ ____
ROOT
ATOM      1  C   UNL     1     -40.138  -4.842  -3.030  0.00  0.00    +0.183 A 
ATOM      2  C   UNL     1     -41.210  -6.684  -3.910  0.00  0.00    +0.155 A 
ATOM      3  C   UNL     1     -40.947  -6.220  -5.186  0.00  0.00    +0.181 A 
ATOM      4  C   UNL     1     -40.249  -5.014  -5.327  0.00  0.00    +0.158 A 
ATOM      5  F   UNL     1     -41.353  -6.914  -6.272  0.00  0.00    -0.200 F 
ATOM      6  N   UNL     1     -40.797  -5.981  -2.867  0.00  0.00    -0.231 NA
ATOM      7  N   UNL     1     -39.865  -4.362  -4.237  0.00  0.00    -0.208 NA
ATOM      8  N   UNL     1     -39.961  -4.511  -6.587  0.00  0.00    -0.323 N 
ATOM      9  H   UNL     1     -40.244  -4.995  -7.379  0.00  0.00    +0.148 HD
ENDROOT
BRANCH   1  15
ATOM     10  C   UNL     1     -42.297  -3.536   0.912  0.00  0.00    +0.142 A 
ATOM     11  C   UNL     1     -41.850  -4.014  -0.307  0.00  0.00    +0.053 A 
ATOM     12  C   UNL     1     -40.523  -3.756  -0.667  0.00  0.00    +0.052 A 
ATOM     13  C   UNL     1     -39.698  -3.030   0.212  0.00  0.00    +0.156 A 
ATOM     14  C   UNL     1     -41.425  -2.826   1.728  0.00  0.00    +0.151 A 
ATOM     15  C   UNL     1     -39.701  -4.083  -1.836  0.00  0.00    +0.139 A 
ATOM     16  F   UNL     1     -43.572  -3.754   1.302  0.00  0.00    -0.204 F 
ATOM     17  N   UNL     1     -40.181  -2.596   1.369  0.00  0.00    -0.233 NA
ATOM     18  N   UNL     1     -38.471  -2.932  -0.391  0.00  0.00    -0.260 N 
ATOM     19  N   UNL     1     -38.507  -3.581  -1.629  0.00  0.00    -0.168 NA
ATOM     20  H   UNL     1     -37.697  -2.483  -0.017  0.00  0.00    +0.191 HD
ENDBRANCH   1  15
BRANCH   8  21
ATOM     21  C   UNL     1     -39.230  -3.249  -6.721  0.00  0.00    +0.089 C 
ATOM     22  C   UNL     1     -40.222  -2.122  -6.988  0.00  0.00    +0.121 C 
ATOM     23  C   UNL     1     -39.928  -1.432  -8.322  0.00  0.00    +0.008 C 
ATOM     24  C   UNL     1     -40.014  -2.499  -9.441  0.00  0.00    -0.003 C 
ATOM     25  C   UNL     1     -39.004  -3.646  -9.170  0.00  0.00    -0.002 C 
ATOM     26  C   UNL     1     -38.219  -3.373  -7.864  0.00  0.00    +0.013 C 
ATOM     27  C   UNL     1     -37.497  -2.031  -8.025  0.00  0.00    +0.006 C 
ATOM     28  C   UNL     1     -38.490  -0.903  -8.291  0.00  0.00    +0.005 C 
ATOM     29  C   UNL     1     -40.508  -3.885  -9.022  0.00  0.00    +0.008 C 
BRANCH  22  30
ATOM     30  C   UNL     1     -40.130  -1.108  -5.876  0.00  0.00    +0.310 C 
ATOM     31  O   UNL     1     -40.786  -0.095  -5.927  0.00  0.00    -0.251 OA
BRANCH  30  32
ATOM     32  O   UNL     1     -39.317  -1.330  -4.831  0.00  0.00    -0.480 OA
ATOM     33  H   UNL     1     -38.876  -2.190  -4.792  0.00  0.00    +0.295 HD
ENDBRANCH  30  32
ENDBRANCH  22  30
ENDBRANCH   8  21
TORSDOF 4
ENDMDL
MODEL 3
REMARK VINA RESULT:    -8.533      3.202      5.111
REMARK INTER + INTRA:         -11.492
REMARK INTER:                 -10.515
REMARK INTRA:                  -0.977
REMARK UNBOUND:                -1.213
REMARK  Name = A1JV9
REMARK  4 active torsions:
REMARK  status: ('A' for Active; 'I' for Inactive)
REMARK    1  A    between atoms: C_6  and  C_20
REMARK    2  A    between atoms: C_10  and  N_25
REMARK    3  A    between atoms: C_11  and  C_19
REMARK    4  A    between atoms: C_19  and  O_30
REMARK                            x       y       z     vdW  Elec       q    Type
REMARK                         _______ _______ _______ _____ _____    ______ ____
ROOT
ATOM      1  C   UNL     1     -41.521  -4.847  -4.433  0.00  0.00    +0.183 A 
ATOM      2  C   UNL     1     -42.166  -5.911  -6.374  0.00  0.00    +0.155 A 
ATOM      3  C   UNL     1     -41.702  -4.835  -7.110  0.00  0.00    +0.181 A 
ATOM      4  C   UNL     1     -41.137  -3.753  -6.426  0.00  0.00    +0.158 A 
ATOM      5  F   UNL     1     -41.793  -4.830  -8.458  0.00  0.00    -0.200 F 
ATOM      6  N   UNL     1     -42.061  -5.886  -5.054  0.00  0.00    -0.231 NA
ATOM      7  N   UNL     1     -41.064  -3.795  -5.102  0.00  0.00    -0.208 NA
ATOM      8  N   UNL     1     -40.658  -2.654  -7.122  0.00  0.00    -0.323 N 
ATOM      9  H   UNL     1     -40.714  -2.630  -8.091  0.00  0.00    +0.148 HD
ENDROOT
BRANCH   1  15
ATOM     10  C   UNL     1     -38.933  -2.449  -1.358  0.00  0.00    +0.142 A 
ATOM     11  C   UNL     1     -39.593  -3.041  -2.419  0.00  0.00    +0.053 A 
ATOM     12  C   UNL     1     -40.547  -4.023  -2.134  0.00  0.00    +0.052 A 
ATOM     13  C   UNL     1     -40.802  -4.370  -0.794  0.00  0.00    +0.156 A 
ATOM     14  C   UNL     1     -39.236  -2.843  -0.060  0.00  0.00    +0.151 A 
ATOM     15  C   UNL     1     -41.431  -4.857  -2.955  0.00  0.00    +0.139 A 
ATOM     16  F   UNL     1     -37.999  -1.499  -1.582  0.00  0.00    -0.204 F 
ATOM     17  N   UNL     1     -40.137  -3.768   0.185  0.00  0.00    -0.233 NA
ATOM     18  N   UNL     1     -41.767  -5.342  -0.815  0.00  0.00    -0.260 N 
ATOM     19  N   UNL     1     -42.127  -5.613  -2.139  0.00  0.00    -0.168 NA
ATOM     20  H   UNL     1     -42.144  -5.775  -0.033  0.00  0.00    +0.191 HD
ENDBRANCH   1  15
BRANCH   8  21
ATOM     21  C   UNL     1     -40.068  -1.526  -6.395  0.00  0.00    +0.089 C 
ATOM     22  C   UNL     1     -40.192  -0.265  -7.243  0.00  0.00    +0.121 C 
ATOM     23  C   UNL     1     -38.815   0.333  -7.546  0.00  0.00    +0.008 C 
ATOM     24  C   UNL     1     -37.983  -0.736  -8.294  0.00  0.00    -0.003 C 
ATOM     25  C   UNL     1     -37.858  -2.021  -7.431  0.00  0.00    -0.002 C 
ATOM     26  C   UNL     1     -38.602  -1.840  -6.086  0.00  0.00    +0.013 C 
ATOM     27  C   UNL     1     -37.986  -0.634  -5.370  0.00  0.00    +0.006 C 
ATOM     28  C   UNL     1     -38.110   0.629  -6.218  0.00  0.00    +0.005 C 
ATOM     29  C   UNL     1     -38.722  -2.015  -8.694  0.00  0.00    +0.008 C 
BRANCH  22  30
ATOM     30  C   UNL     1     -41.020   0.752  -6.499  0.00  0.00    +0.310 C 
ATOM     31  O   UNL     1     -41.734   0.401  -5.590  0.00  0.00    -0.251 OA
BRANCH  30  32
ATOM     32  O   UNL     1     -40.964   2.046  -6.847  0.00  0.00    -0.480 OA
ATOM     33  H   UNL     1     -41.802   2.525  -6.897  0.00  0.00    +0.295 HD
ENDBRANCH  30  32
ENDBRANCH  22  30
ENDBRANCH   8  21
TORSDOF 4
ENDMDL
MODEL 4
REMARK VINA RESULT:    -8.113      3.065      6.232
REMARK INTER + INTRA:         -10.987
REMARK INTER:                  -9.849
REMARK INTRA:                  -1.137
REMARK UNBOUND:                -1.213
REMARK  Name = A1JV9
REMARK  4 active torsions:
REMARK  status: ('A' for Active; 'I' for Inactive)
REMARK    1  A    between atoms: C_6  and  C_20
REMARK    2  A    between atoms: C_10  and  N_25
REMARK    3  A    between atoms: C_11  and  C_19
REMARK    4  A    between atoms: C_19  and  O_30
REMARK                            x       y       z     vdW  Elec       q    Type
REMARK                         _______ _______ _______ _____ _____    ______ ____
ROOT
ATOM      1  C   UNL     1     -39.890  -3.969  -2.516  0.00  0.00    +0.183 A 
ATOM      2  C   UNL     1     -38.238  -2.665  -1.575  0.00  0.00    +0.155 A 
ATOM      3  C   UNL     1     -38.043  -2.043  -2.795  0.00  0.00    +0.181 A 
ATOM      4  C   UNL     1     -38.830  -2.441  -3.881  0.00  0.00    +0.158 A 
ATOM      5  F   UNL     1     -37.113  -1.073  -2.935  0.00  0.00    -0.200 F 
ATOM      6  N   UNL     1     -39.158  -3.611  -1.470  0.00  0.00    -0.231 NA
ATOM      7  N   UNL     1     -39.734  -3.397  -3.704  0.00  0.00    -0.208 NA
ATOM      8  N   UNL     1     -38.671  -1.845  -5.122  0.00  0.00    -0.323 N 
ATOM      9  H   UNL     1     -38.008  -1.146  -5.244  0.00  0.00    +0.148 HD
ENDROOT
BRANCH   1  15
ATOM     10  C   UNL     1     -41.027  -7.721  -5.071  0.00  0.00    +0.142 A 
ATOM     11  C   UNL     1     -40.540  -6.575  -4.470  0.00  0.00    +0.053 A 
ATOM     12  C   UNL     1     -41.129  -6.161  -3.271  0.00  0.00    +0.052 A 
ATOM     13  C   UNL     1     -42.182  -6.916  -2.722  0.00  0.00    +0.156 A 
ATOM     14  C   UNL     1     -42.071  -8.416  -4.472  0.00  0.00    +0.151 A 
ATOM     15  C   UNL     1     -40.902  -5.037  -2.357  0.00  0.00    +0.139 A 
ATOM     16  F   UNL     1     -40.496  -8.158  -6.233  0.00  0.00    -0.204 F 
ATOM     17  N   UNL     1     -42.609  -8.009  -3.343  0.00  0.00    -0.233 NA
ATOM     18  N   UNL     1     -42.557  -6.286  -1.565  0.00  0.00    -0.260 N 
ATOM     19  N   UNL     1     -41.762  -5.152  -1.372  0.00  0.00    -0.168 NA
ATOM     20  H   UNL     1     -43.265  -6.581  -0.969  0.00  0.00    +0.191 HD
ENDBRANCH   1  15
BRANCH   8  21
ATOM     21  C   UNL     1     -39.501  -2.271  -6.252  0.00  0.00    +0.089 C 
ATOM     22  C   UNL     1     -38.599  -2.678  -7.411  0.00  0.00    +0.121 C 
ATOM     23  C   UNL     1     -38.874  -1.824  -8.651  0.00  0.00    +0.008 C 
ATOM     24  C   UNL     1     -38.630  -0.342  -8.275  0.00  0.00    -0.003 C 
ATOM     25  C   UNL     1     -39.549   0.072  -7.095  0.00  0.00    -0.002 C 
ATOM     26  C   UNL     1     -40.429  -1.122  -6.654  0.00  0.00    +0.013 C 
ATOM     27  C   UNL     1     -41.256  -1.565  -7.866  0.00  0.00    +0.006 C 
ATOM     28  C   UNL     1     -40.353  -1.972  -9.026  0.00  0.00    +0.005 C 
ATOM     29  C   UNL     1     -38.040  -0.082  -6.888  0.00  0.00    +0.008 C 
BRANCH  22  30
ATOM     30  C   UNL     1     -38.845  -4.127  -7.745  0.00  0.00    +0.310 C 
ATOM     31  O   UNL     1     -39.468  -4.826  -6.981  0.00  0.00    -0.251 OA
BRANCH  30  32
ATOM     32  O   UNL     1     -38.370  -4.642  -8.890  0.00  0.00    -0.480 OA
ATOM     33  H   UNL     1     -37.437  -4.488  -9.088  0.00  0.00    +0.295 HD
ENDBRANCH  30  32
ENDBRANCH  22  30
ENDBRANCH   8  21
TORSDOF 4
ENDMDL
MODEL 5
REMARK VINA RESULT:    -7.893      3.344      6.069
REMARK INTER + INTRA:         -10.722
REMARK INTER:                  -9.651
REMARK INTRA:                  -1.071
REMARK UNBOUND:                -1.213
REMARK  Name = A1JV9
REMARK  4 active torsions:
REMARK  status: ('A' for Active; 'I' for Inactive)
REMARK    1  A    between atoms: C_6  and  C_20
REMARK    2  A    between atoms: C_10  and  N_25
REMARK    3  A    between atoms: C_11  and  C_19
REMARK    4  A    between atoms: C_19  and  O_30
REMARK                            x       y       z     vdW  Elec       q    Type
REMARK                         _______ _______ _______ _____ _____    ______ ____
ROOT
ATOM      1  C   UNL     1     -39.754  -3.453  -2.291  0.00  0.00    +0.183 A 
ATOM      2  C   UNL     1     -37.997  -2.047  -1.783  0.00  0.00    +0.155 A 
ATOM      3  C   UNL     1     -37.904  -1.692  -3.116  0.00  0.00    +0.181 A 
ATOM      4  C   UNL     1     -38.796  -2.272  -4.026  0.00  0.00    +0.158 A 
ATOM      5  F   UNL     1     -36.973  -0.805  -3.532  0.00  0.00    -0.200 F 
ATOM      6  N   UNL     1     -38.921  -2.918  -1.408  0.00  0.00    -0.231 NA
ATOM      7  N   UNL     1     -39.697  -3.138  -3.580  0.00  0.00    -0.208 NA
ATOM      8  N   UNL     1     -38.740  -1.946  -5.372  0.00  0.00    -0.323 N 
ATOM      9  H   UNL     1     -38.079  -1.311  -5.690  0.00  0.00    +0.148 HD
ENDROOT
BRANCH   1  15
ATOM     10  C   UNL     1     -42.670  -3.566   1.367  0.00  0.00    +0.142 A 
ATOM     11  C   UNL     1     -41.743  -3.340   0.367  0.00  0.00    +0.053 A 
ATOM     12  C   UNL     1     -41.610  -4.306  -0.637  0.00  0.00    +0.052 A 
ATOM     13  C   UNL     1     -42.416  -5.458  -0.597  0.00  0.00    +0.156 A 
ATOM     14  C   UNL     1     -43.431  -4.728   1.342  0.00  0.00    +0.151 A 
ATOM     15  C   UNL     1     -40.767  -4.428  -1.830  0.00  0.00    +0.139 A 
ATOM     16  F   UNL     1     -42.831  -2.667   2.362  0.00  0.00    -0.204 F 
ATOM     17  N   UNL     1     -43.291  -5.622   0.388  0.00  0.00    -0.233 NA
ATOM     18  N   UNL     1     -42.077  -6.214  -1.688  0.00  0.00    -0.260 N 
ATOM     19  N   UNL     1     -41.076  -5.562  -2.414  0.00  0.00    -0.168 NA
ATOM     20  H   UNL     1     -42.470  -7.070  -1.922  0.00  0.00    +0.191 HD
ENDBRANCH   1  15
BRANCH   8  21
ATOM     21  C   UNL     1     -39.679  -2.560  -6.314  0.00  0.00    +0.089 C 
ATOM     22  C   UNL     1     -38.917  -3.506  -7.235  0.00  0.00    +0.121 C 
ATOM     23  C   UNL     1     -39.066  -3.091  -8.701  0.00  0.00    +0.008 C 
ATOM     24  C   UNL     1     -38.523  -1.648  -8.846  0.00  0.00    -0.003 C 
ATOM     25  C   UNL     1     -39.299  -0.684  -7.908  0.00  0.00    -0.002 C 
ATOM     26  C   UNL     1     -40.379  -1.458  -7.115  0.00  0.00    +0.013 C 
ATOM     27  C   UNL     1     -41.321  -2.117  -8.129  0.00  0.00    +0.006 C 
ATOM     28  C   UNL     1     -40.558  -3.065  -9.050  0.00  0.00    +0.005 C 
ATOM     29  C   UNL     1     -37.843  -1.051  -7.612  0.00  0.00    +0.008 C 
BRANCH  22  30
ATOM     30  C   UNL     1     -39.453  -4.904  -7.061  0.00  0.00    +0.310 C 
ATOM     31  O   UNL     1     -40.352  -5.114  -6.281  0.00  0.00    -0.251 OA
BRANCH  30  32
ATOM     32  O   UNL     1     -38.932  -5.916  -7.772  0.00  0.00    -0.480 OA
ATOM     33  H   UNL     1     -37.968  -5.972  -7.817  0.00  0.00    +0.295 HD
ENDBRANCH  30  32
ENDBRANCH  22  30
ENDBRANCH   8  21
TORSDOF 4
ENDMDL
MODEL 6
REMARK VINA RESULT:    -7.689      3.204      4.991
REMARK INTER + INTRA:         -10.476
REMARK INTER:                  -8.991
REMARK INTRA:                  -1.485
REMARK UNBOUND:                -1.213
REMARK  Name = A1JV9
REMARK  4 active torsions:
REMARK  status: ('A' for Active; 'I' for Inactive)
REMARK    1  A    between atoms: C_6  and  C_20
REMARK    2  A    between atoms: C_10  and  N_25
REMARK    3  A    between atoms: C_11  and  C_19
REMARK    4  A    between atoms: C_19  and  O_30
REMARK                            x       y       z     vdW  Elec       q    Type
REMARK                         _______ _______ _______ _____ _____    ______ ____
ROOT
ATOM      1  C   UNL     1     -39.440  -1.065  -7.465  0.00  0.00    +0.183 A 
ATOM      2  C   UNL     1     -39.561  -2.397  -9.344  0.00  0.00    +0.155 A 
ATOM      3  C   UNL     1     -40.659  -3.044  -8.807  0.00  0.00    +0.181 A 
ATOM      4  C   UNL     1     -41.120  -2.644  -7.547  0.00  0.00    +0.158 A 
ATOM      5  F   UNL     1     -41.273  -4.040  -9.483  0.00  0.00    -0.200 F 
ATOM      6  N   UNL     1     -38.983  -1.424  -8.657  0.00  0.00    -0.231 NA
ATOM      7  N   UNL     1     -40.491  -1.661  -6.915  0.00  0.00    -0.208 NA
ATOM      8  N   UNL     1     -42.217  -3.264  -6.970  0.00  0.00    -0.323 N 
ATOM      9  H   UNL     1     -42.672  -3.981  -7.439  0.00  0.00    +0.148 HD
ENDROOT
BRANCH   1  15
ATOM     10  C   UNL     1     -37.274  -0.863  -3.322  0.00  0.00    +0.142 A 
ATOM     11  C   UNL     1     -37.948  -1.133  -4.499  0.00  0.00    +0.053 A 
ATOM     12  C   UNL     1     -38.121  -0.088  -5.412  0.00  0.00    +0.052 A 
ATOM     13  C   UNL     1     -37.607   1.186  -5.108  0.00  0.00    +0.156 A 
ATOM     14  C   UNL     1     -36.795   0.420  -3.089  0.00  0.00    +0.151 A 
ATOM     15  C   UNL     1     -38.759   0.022  -6.727  0.00  0.00    +0.139 A 
ATOM     16  F   UNL     1     -37.086  -1.837  -2.406  0.00  0.00    -0.204 F 
ATOM     17  N   UNL     1     -36.968   1.388  -3.963  0.00  0.00    -0.233 NA
ATOM     18  N   UNL     1     -37.919   1.999  -6.167  0.00  0.00    -0.260 N 
ATOM     19  N   UNL     1     -38.615   1.263  -7.130  0.00  0.00    -0.168 NA
ATOM     20  H   UNL     1     -37.690   2.939  -6.238  0.00  0.00    +0.191 HD
ENDBRANCH   1  15
BRANCH   8  21
ATOM     21  C   UNL     1     -42.690  -2.836  -5.651  0.00  0.00    +0.089 C 
ATOM     22  C   UNL     1     -41.905  -3.577  -4.574  0.00  0.00    +0.121 C 
ATOM     23  C   UNL     1     -42.835  -4.401  -3.680  0.00  0.00    +0.008 C 
ATOM     24  C   UNL     1     -43.593  -5.408  -4.580  0.00  0.00    -0.003 C 
ATOM     25  C   UNL     1     -44.392  -4.655  -5.677  0.00  0.00    -0.002 C 
ATOM     26  C   UNL     1     -44.189  -3.127  -5.536  0.00  0.00    +0.013 C 
ATOM     27  C   UNL     1     -44.658  -2.719  -4.135  0.00  0.00    +0.006 C 
ATOM     28  C   UNL     1     -43.872  -3.460  -3.057  0.00  0.00    +0.005 C 
ATOM     29  C   UNL     1     -43.154  -5.475  -6.044  0.00  0.00    +0.008 C 
BRANCH  22  30
ATOM     30  C   UNL     1     -41.164  -2.575  -3.725  0.00  0.00    +0.310 C 
ATOM     31  O   UNL     1     -40.442  -2.955  -2.834  0.00  0.00    -0.251 OA
BRANCH  30  32
ATOM     32  O   UNL     1     -41.309  -1.261  -3.958  0.00  0.00    -0.480 OA
ATOM     33  H   UNL     1     -41.895  -0.771  -3.365  0.00  0.00    +0.295 HD
ENDBRANCH  30  32
ENDBRANCH  22  30
ENDBRANCH   8  21
TORSDOF 4
ENDMDL
MODEL 7
REMARK VINA RESULT:    -7.422      3.854      6.899
REMARK INTER + INTRA:         -10.153
REMARK INTER:                  -8.709
REMARK INTRA:                  -1.444
REMARK UNBOUND:                -1.213
REMARK  Name = A1JV9
REMARK  4 active torsions:
REMARK  status: ('A' for Active; 'I' for Inactive)
REMARK    1  A    between atoms: C_6  and  C_20
REMARK    2  A    between atoms: C_10  and  N_25
REMARK    3  A    between atoms: C_11  and  C_19
REMARK    4  A    between atoms: C_19  and  O_30
REMARK                            x       y       z     vdW  Elec       q    Type
REMARK                         _______ _______ _______ _____ _____    ______ ____
ROOT
ATOM      1  C   UNL     1     -43.311  -4.614  -6.545  0.00  0.00    +0.183 A 
ATOM      2  C   UNL     1     -42.729  -5.726  -8.479  0.00  0.00    +0.155 A 
ATOM      3  C   UNL     1     -41.607  -4.926  -8.595  0.00  0.00    +0.181 A 
ATOM      4  C   UNL     1     -41.380  -3.949  -7.618  0.00  0.00    +0.158 A 
ATOM      5  F   UNL     1     -40.749  -5.084  -9.626  0.00  0.00    -0.200 F 
ATOM      6  N   UNL     1     -43.550  -5.547  -7.456  0.00  0.00    -0.231 NA
ATOM      7  N   UNL     1     -42.245  -3.826  -6.619  0.00  0.00    -0.208 NA
ATOM      8  N   UNL     1     -40.268  -3.125  -7.692  0.00  0.00    -0.323 N 
ATOM      9  H   UNL     1     -39.640  -3.223  -8.425  0.00  0.00    +0.148 HD
ENDROOT
BRANCH   1  15
ATOM     10  C   UNL     1     -42.911  -5.096  -1.907  0.00  0.00    +0.142 A 
ATOM     11  C   UNL     1     -42.819  -5.011  -3.284  0.00  0.00    +0.053 A 
ATOM     12  C   UNL     1     -43.962  -4.639  -3.998  0.00  0.00    +0.052 A 
ATOM     13  C   UNL     1     -45.153  -4.365  -3.300  0.00  0.00    +0.156 A 
ATOM     14  C   UNL     1     -44.121  -4.812  -1.286  0.00  0.00    +0.151 A 
ATOM     15  C   UNL     1     -44.259  -4.442  -5.421  0.00  0.00    +0.139 A 
ATOM     16  F   UNL     1     -41.836  -5.457  -1.173  0.00  0.00    -0.204 F 
ATOM     17  N   UNL     1     -45.184  -4.463  -1.977  0.00  0.00    -0.233 NA
ATOM     18  N   UNL     1     -46.093  -4.031  -4.240  0.00  0.00    -0.260 N 
ATOM     19  N   UNL     1     -45.518  -4.087  -5.514  0.00  0.00    -0.168 NA
ATOM     20  H   UNL     1     -47.014  -3.791  -4.052  0.00  0.00    +0.191 HD
ENDBRANCH   1  15
BRANCH   8  21
ATOM     21  C   UNL     1     -40.042  -2.107  -6.663  0.00  0.00    +0.089 C 
ATOM     22  C   UNL     1     -40.367  -0.733  -7.240  0.00  0.00    +0.121 C 
ATOM     23  C   UNL     1     -39.146   0.190  -7.191  0.00  0.00    +0.008 C 
ATOM     24  C   UNL     1     -38.011  -0.478  -8.004  0.00  0.00    -0.003 C 
ATOM     25  C   UNL     1     -37.679  -1.877  -7.418  0.00  0.00    -0.002 C 
ATOM     26  C   UNL     1     -38.584  -2.177  -6.200  0.00  0.00    +0.013 C 
ATOM     27  C   UNL     1     -38.350  -1.075  -5.160  0.00  0.00    +0.006 C 
ATOM     28  C   UNL     1     -38.677   0.300  -5.737  0.00  0.00    +0.005 C 
ATOM     29  C   UNL     1     -38.380  -1.749  -8.772  0.00  0.00    +0.008 C 
BRANCH  22  30
ATOM     30  C   UNL     1     -41.486  -0.114  -6.441  0.00  0.00    +0.310 C 
ATOM     31  O   UNL     1     -41.775   1.047  -6.606  0.00  0.00    -0.251 OA
BRANCH  30  32
ATOM     32  O   UNL     1     -42.160  -0.853  -5.546  0.00  0.00    -0.480 OA
ATOM     33  H   UNL     1     -42.570  -1.667  -5.868  0.00  0.00    +0.295 HD
ENDBRANCH  30  32
ENDBRANCH  22  30
ENDBRANCH   8  21
TORSDOF 4
ENDMDL
MODEL 8
REMARK VINA RESULT:    -7.275      2.653      7.096
REMARK INTER + INTRA:          -9.976
REMARK INTER:                  -8.799
REMARK INTRA:                  -1.178
REMARK UNBOUND:                -1.213
REMARK  Name = A1JV9
REMARK  4 active torsions:
REMARK  status: ('A' for Active; 'I' for Inactive)
REMARK    1  A    between atoms: C_6  and  C_20
REMARK    2  A    between atoms: C_10  and  N_25
REMARK    3  A    between atoms: C_11  and  C_19
REMARK    4  A    between atoms: C_19  and  O_30
REMARK                            x       y       z     vdW  Elec       q    Type
REMARK                         _______ _______ _______ _____ _____    ______ ____
ROOT
ATOM      1  C   UNL     1     -39.302  -1.654  -7.143  0.00  0.00    +0.183 A 
ATOM      2  C   UNL     1     -38.121   0.229  -6.529  0.00  0.00    +0.155 A 
ATOM      3  C   UNL     1     -38.287  -0.109  -5.198  0.00  0.00    +0.181 A 
ATOM      4  C   UNL     1     -38.996  -1.275  -4.889  0.00  0.00    +0.158 A 
ATOM      5  F   UNL     1     -37.775   0.669  -4.219  0.00  0.00    -0.200 F 
ATOM      6  N   UNL     1     -38.634  -0.554  -7.465  0.00  0.00    -0.231 NA
ATOM      7  N   UNL     1     -39.483  -2.013  -5.878  0.00  0.00    -0.208 NA
ATOM      8  N   UNL     1     -39.186  -1.654  -3.569  0.00  0.00    -0.323 N 
ATOM      9  H   UNL     1     -38.826  -1.109  -2.851  0.00  0.00    +0.148 HD
ENDROOT
BRANCH   1  15
ATOM     10  C   UNL     1     -40.177  -6.236  -7.507  0.00  0.00    +0.142 A 
ATOM     11  C   UNL     1     -39.847  -4.929  -7.198  0.00  0.00    +0.053 A 
ATOM     12  C   UNL     1     -40.075  -3.948  -8.168  0.00  0.00    +0.052 A 
ATOM     13  C   UNL     1     -40.628  -4.317  -9.408  0.00  0.00    +0.156 A 
ATOM     14  C   UNL     1     -40.719  -6.528  -8.753  0.00  0.00    +0.151 A 
ATOM     15  C   UNL     1     -39.865  -2.497  -8.221  0.00  0.00    +0.139 A 
ATOM     16  F   UNL     1     -39.971  -7.221  -6.606  0.00  0.00    -0.204 F 
ATOM     17  N   UNL     1     -40.926  -5.588  -9.649  0.00  0.00    -0.233 NA
ATOM     18  N   UNL     1     -40.739  -3.169 -10.148  0.00  0.00    -0.260 N 
ATOM     19  N   UNL     1     -40.269  -2.086  -9.399  0.00  0.00    -0.168 NA
ATOM     20  H   UNL     1     -41.090  -3.116 -11.051  0.00  0.00    +0.191 HD
ENDBRANCH   1  15
BRANCH   8  21
ATOM     21  C   UNL     1     -39.931  -2.877  -3.258  0.00  0.00    +0.089 C 
ATOM     22  C   UNL     1     -41.129  -2.524  -2.384  0.00  0.00    +0.121 C 
ATOM     23  C   UNL     1     -41.068  -3.255  -1.040  0.00  0.00    +0.008 C 
ATOM     24  C   UNL     1     -39.751  -2.848  -0.335  0.00  0.00    -0.003 C 
ATOM     25  C   UNL     1     -38.530  -3.207  -1.224  0.00  0.00    -0.002 C 
ATOM     26  C   UNL     1     -39.001  -3.862  -2.544  0.00  0.00    +0.013 C 
ATOM     27  C   UNL     1     -39.806  -5.116  -2.183  0.00  0.00    +0.006 C 
ATOM     28  C   UNL     1     -41.006  -4.762  -1.309  0.00  0.00    +0.005 C 
ATOM     29  C   UNL     1     -38.932  -1.746  -1.009  0.00  0.00    +0.008 C 
BRANCH  22  30
ATOM     30  C   UNL     1     -42.396  -2.915  -3.101  0.00  0.00    +0.310 C 
ATOM     31  O   UNL     1     -42.350  -3.289  -4.249  0.00  0.00    -0.251 OA
BRANCH  30  32
ATOM     32  O   UNL     1     -43.576  -2.846  -2.465  0.00  0.00    -0.480 OA
ATOM     33  H   UNL     1     -44.349  -3.188  -2.934  0.00  0.00    +0.295 HD
ENDBRANCH  30  32
ENDBRANCH  22  30
ENDBRANCH   8  21
TORSDOF 4
ENDMDL
MODEL 9
REMARK VINA RESULT:    -7.101     24.475     26.799
REMARK INTER + INTRA:          -9.768
REMARK INTER:                  -8.391
REMARK INTRA:                  -1.377
REMARK UNBOUND:                -1.213
REMARK  Name = A1JV9
REMARK  4 active torsions:
REMARK  status: ('A' for Active; 'I' for Inactive)
REMARK    1  A    between atoms: C_6  and  C_20
REMARK    2  A    between atoms: C_10  and  N_25
REMARK    3  A    between atoms: C_11  and  C_19
REMARK    4  A    between atoms: C_19  and  O_30
REMARK                            x       y       z     vdW  Elec       q    Type
REMARK                         _______ _______ _______ _____ _____    ______ ____
ROOT
ATOM      1  C   UNL     1     -21.526  -0.483 -27.189  0.00  0.00    +0.183 A 
ATOM      2  C   UNL     1     -20.306   1.354 -27.863  0.00  0.00    +0.155 A 
ATOM      3  C   UNL     1     -21.191   2.179 -27.194  0.00  0.00    +0.181 A 
ATOM      4  C   UNL     1     -22.266   1.595 -26.515  0.00  0.00    +0.158 A 
ATOM      5  F   UNL     1     -21.022   3.520 -27.196  0.00  0.00    -0.200 F 
ATOM      6  N   UNL     1     -20.499   0.044 -27.842  0.00  0.00    -0.231 NA
ATOM      7  N   UNL     1     -22.398   0.275 -26.535  0.00  0.00    -0.208 NA
ATOM      8  N   UNL     1     -23.177   2.383 -25.829  0.00  0.00    -0.323 N 
ATOM      9  H   UNL     1     -23.073   3.348 -25.818  0.00  0.00    +0.148 HD
ENDROOT
BRANCH   1  15
ATOM     10  C   UNL     1     -19.135  -4.025 -25.282  0.00  0.00    +0.142 A 
ATOM     11  C   UNL     1     -19.691  -2.850 -25.753  0.00  0.00    +0.053 A 
ATOM     12  C   UNL     1     -20.849  -2.937 -26.534  0.00  0.00    +0.052 A 
ATOM     13  C   UNL     1     -21.403  -4.201 -26.809  0.00  0.00    +0.156 A 
ATOM     14  C   UNL     1     -19.737  -5.238 -25.595  0.00  0.00    +0.151 A 
ATOM     15  C   UNL     1     -21.709  -1.952 -27.197  0.00  0.00    +0.139 A 
ATOM     16  F   UNL     1     -18.015  -3.995 -24.530  0.00  0.00    -0.204 F 
ATOM     17  N   UNL     1     -20.826  -5.296 -26.330  0.00  0.00    -0.233 NA
ATOM     18  N   UNL     1     -22.514  -3.984 -27.581  0.00  0.00    -0.260 N 
ATOM     19  N   UNL     1     -22.671  -2.612 -27.797  0.00  0.00    -0.168 NA
ATOM     20  H   UNL     1     -23.101  -4.676 -27.925  0.00  0.00    +0.191 HD
ENDBRANCH   1  15
BRANCH   8  21
ATOM     21  C   UNL     1     -24.299   1.759 -25.122  0.00  0.00    +0.089 C 
ATOM     22  C   UNL     1     -25.575   1.962 -25.930  0.00  0.00    +0.121 C 
ATOM     23  C   UNL     1     -26.623   2.733 -25.122  0.00  0.00    +0.008 C 
ATOM     24  C   UNL     1     -26.014   4.100 -24.730  0.00  0.00    -0.003 C 
ATOM     25  C   UNL     1     -24.713   3.894 -23.907  0.00  0.00    -0.002 C 
ATOM     26  C   UNL     1     -24.423   2.384 -23.730  0.00  0.00    +0.013 C 
ATOM     27  C   UNL     1     -25.629   1.757 -23.021  0.00  0.00    +0.006 C 
ATOM     28  C   UNL     1     -26.907   1.960 -23.830  0.00  0.00    +0.005 C 
ATOM     29  C   UNL     1     -24.650   4.436 -25.336  0.00  0.00    +0.008 C 
BRANCH  22  30
ATOM     30  C   UNL     1     -26.138   0.617 -26.313  0.00  0.00    +0.310 C 
ATOM     31  O   UNL     1     -27.194   0.547 -26.895  0.00  0.00    -0.251 OA
BRANCH  30  32
ATOM     32  O   UNL     1     -25.465  -0.503 -26.006  0.00  0.00    -0.480 OA
ATOM     33  H   UNL     1     -25.239  -1.095 -26.737  0.00  0.00    +0.295 HD
ENDBRANCH  30  32
ENDBRANCH  22  30
ENDBRANCH   8  21
TORSDOF 4
ENDMDL
MODEL 10
REMARK VINA RESULT:    -7.081      3.860      7.536
REMARK INTER + INTRA:          -9.743
REMARK INTER:                  -8.292
REMARK INTRA:                  -1.452
REMARK UNBOUND:                -1.213
REMARK  Name = A1JV9
REMARK  4 active torsions:
REMARK  status: ('A' for Active; 'I' for Inactive)
REMARK    1  A    between atoms: C_6  and  C_20
REMARK    2  A    between atoms: C_10  and  N_25
REMARK    3  A    between atoms: C_11  and  C_19
REMARK    4  A    between atoms: C_19  and  O_30
REMARK                            x       y       z     vdW  Elec       q    Type
REMARK                         _______ _______ _______ _____ _____    ______ ____
ROOT
ATOM      1  C   UNL     1     -44.091  -3.428  -6.081  0.00  0.00    +0.183 A 
ATOM      2  C   UNL     1     -44.316  -2.669  -3.915  0.00  0.00    +0.155 A 
ATOM      3  C   UNL     1     -43.118  -1.988  -4.036  0.00  0.00    +0.181 A 
ATOM      4  C   UNL     1     -42.424  -2.068  -5.249  0.00  0.00    +0.158 A 
ATOM      5  F   UNL     1     -42.629  -1.263  -3.007  0.00  0.00    -0.200 F 
ATOM      6  N   UNL     1     -44.769  -3.370  -4.943  0.00  0.00    -0.231 NA
ATOM      7  N   UNL     1     -42.937  -2.789  -6.238  0.00  0.00    -0.208 NA
ATOM      8  N   UNL     1     -41.220  -1.401  -5.417  0.00  0.00    -0.323 N 
ATOM      9  H   UNL     1     -40.852  -0.875  -4.689  0.00  0.00    +0.148 HD
ENDROOT
BRANCH   1  15
ATOM     10  C   UNL     1     -42.549  -7.221  -8.348  0.00  0.00    +0.142 A 
ATOM     11  C   UNL     1     -42.822  -6.119  -7.559  0.00  0.00    +0.053 A 
ATOM     12  C   UNL     1     -44.005  -5.412  -7.803  0.00  0.00    +0.052 A 
ATOM     13  C   UNL     1     -44.866  -5.843  -8.829  0.00  0.00    +0.156 A 
ATOM     14  C   UNL     1     -43.446  -7.587  -9.344  0.00  0.00    +0.151 A 
ATOM     15  C   UNL     1     -44.630  -4.230  -7.203  0.00  0.00    +0.139 A 
ATOM     16  F   UNL     1     -41.417  -7.932  -8.155  0.00  0.00    -0.204 F 
ATOM     17  N   UNL     1     -44.553  -6.908  -9.555  0.00  0.00    -0.233 NA
ATOM     18  N   UNL     1     -45.929  -4.977  -8.840  0.00  0.00    -0.260 N 
ATOM     19  N   UNL     1     -45.755  -4.013  -7.842  0.00  0.00    -0.168 NA
ATOM     20  H   UNL     1     -46.685  -5.026  -9.445  0.00  0.00    +0.191 HD
ENDBRANCH   1  15
BRANCH   8  21
ATOM     21  C   UNL     1     -40.503  -1.492  -6.691  0.00  0.00    +0.089 C 
ATOM     22  C   UNL     1     -39.700  -2.787  -6.721  0.00  0.00    +0.121 C 
ATOM     23  C   UNL     1     -38.205  -2.505  -6.894  0.00  0.00    +0.008 C 
ATOM     24  C   UNL     1     -37.746  -1.617  -5.712  0.00  0.00    -0.003 C 
ATOM     25  C   UNL     1     -38.565  -0.298  -5.681  0.00  0.00    -0.002 C 
ATOM     26  C   UNL     1     -39.589  -0.273  -6.841  0.00  0.00    +0.013 C 
ATOM     27  C   UNL     1     -38.811  -0.407  -8.155  0.00  0.00    +0.006 C 
ATOM     28  C   UNL     1     -38.006  -1.704  -8.185  0.00  0.00    +0.005 C 
ATOM     29  C   UNL     1     -38.776  -1.369  -4.609  0.00  0.00    +0.008 C 
BRANCH  22  30
ATOM     30  C   UNL     1     -40.177  -3.639  -7.869  0.00  0.00    +0.310 C 
ATOM     31  O   UNL     1     -39.654  -4.706  -8.089  0.00  0.00    -0.251 OA
BRANCH  30  32
ATOM     32  O   UNL     1     -41.183  -3.213  -8.648  0.00  0.00    -0.480 OA
ATOM     33  H   UNL     1     -41.879  -2.694  -8.223  0.00  0.00    +0.295 HD
ENDBRANCH  30  32
ENDBRANCH  22  30
ENDBRANCH   8  21
TORSDOF 4
ENDMDL
MODEL 11
REMARK VINA RESULT:    -7.021      3.863      6.402
REMARK INTER + INTRA:          -9.671
REMARK INTER:                  -8.245
REMARK INTRA:                  -1.426
REMARK UNBOUND:                -1.213
REMARK  Name = A1JV9
REMARK  4 active torsions:
REMARK  status: ('A' for Active; 'I' for Inactive)
REMARK    1  A    between atoms: C_6  and  C_20
REMARK    2  A    between atoms: C_10  and  N_25
REMARK    3  A    between atoms: C_11  and  C_19
REMARK    4  A    between atoms: C_19  and  O_30
REMARK                            x       y       z     vdW  Elec       q    Type
REMARK                         _______ _______ _______ _____ _____    ______ ____
ROOT
ATOM      1  C   UNL     1     -42.080  -5.650  -4.673  0.00  0.00    +0.183 A 
ATOM      2  C   UNL     1     -41.075  -7.305  -5.925  0.00  0.00    +0.155 A 
ATOM      3  C   UNL     1     -40.306  -6.348  -6.562  0.00  0.00    +0.181 A 
ATOM      4  C   UNL     1     -40.474  -5.007  -6.199  0.00  0.00    +0.158 A 
ATOM      5  F   UNL     1     -39.412  -6.700  -7.512  0.00  0.00    -0.200 F 
ATOM      6  N   UNL     1     -41.942  -6.928  -4.997  0.00  0.00    -0.231 NA
ATOM      7  N   UNL     1     -41.361  -4.701  -5.260  0.00  0.00    -0.208 NA
ATOM      8  N   UNL     1     -39.723  -4.014  -6.809  0.00  0.00    -0.323 N 
ATOM      9  H   UNL     1     -39.076  -4.246  -7.493  0.00  0.00    +0.148 HD
ENDROOT
BRANCH   1  15
ATOM     10  C   UNL     1     -46.159  -3.360  -4.804  0.00  0.00    +0.142 A 
ATOM     11  C   UNL     1     -44.949  -4.005  -4.981  0.00  0.00    +0.053 A 
ATOM     12  C   UNL     1     -44.317  -4.538  -3.854  0.00  0.00    +0.052 A 
ATOM     13  C   UNL     1     -44.927  -4.405  -2.593  0.00  0.00    +0.156 A 
ATOM     14  C   UNL     1     -46.702  -3.265  -3.528  0.00  0.00    +0.151 A 
ATOM     15  C   UNL     1     -43.065  -5.271  -3.636  0.00  0.00    +0.139 A 
ATOM     16  F   UNL     1     -46.805  -2.822  -5.861  0.00  0.00    -0.204 F 
ATOM     17  N   UNL     1     -46.090  -3.776  -2.482  0.00  0.00    -0.233 NA
ATOM     18  N   UNL     1     -44.098  -5.014  -1.688  0.00  0.00    -0.260 N 
ATOM     19  N   UNL     1     -42.980  -5.528  -2.352  0.00  0.00    -0.168 NA
ATOM     20  H   UNL     1     -44.260  -5.079  -0.733  0.00  0.00    +0.191 HD
ENDBRANCH   1  15
BRANCH   8  21
ATOM     21  C   UNL     1     -39.908  -2.613  -6.420  0.00  0.00    +0.089 C 
ATOM     22  C   UNL     1     -40.508  -1.844  -7.592  0.00  0.00    +0.121 C 
ATOM     23  C   UNL     1     -39.590  -0.698  -8.027  0.00  0.00    +0.008 C 
ATOM     24  C   UNL     1     -38.224  -1.306  -8.427  0.00  0.00    -0.003 C 
ATOM     25  C   UNL     1     -37.613  -2.089  -7.234  0.00  0.00    -0.002 C 
ATOM     26  C   UNL     1     -38.556  -2.024  -6.009  0.00  0.00    +0.013 C 
ATOM     27  C   UNL     1     -38.757  -0.547  -5.652  0.00  0.00    +0.006 C 
ATOM     28  C   UNL     1     -39.358   0.223  -6.825  0.00  0.00    +0.005 C 
ATOM     29  C   UNL     1     -38.143  -2.833  -8.462  0.00  0.00    +0.008 C 
BRANCH  22  30
ATOM     30  C   UNL     1     -41.843  -1.279  -7.181  0.00  0.00    +0.310 C 
ATOM     31  O   UNL     1     -42.396  -0.464  -7.882  0.00  0.00    -0.251 OA
BRANCH  30  32
ATOM     32  O   UNL     1     -42.418  -1.678  -6.036  0.00  0.00    -0.480 OA
ATOM     33  H   UNL     1     -43.381  -1.759  -6.032  0.00  0.00    +0.295 HD
ENDBRANCH  30  32
ENDBRANCH  22  30
ENDBRANCH   8  21
TORSDOF 4
ENDMDL
MODEL 12
REMARK VINA RESULT:    -6.928     22.615     23.831
REMARK INTER + INTRA:          -9.558
REMARK INTER:                  -8.263
REMARK INTRA:                  -1.295
REMARK UNBOUND:                -1.213
REMARK  Name = A1JV9
REMARK  4 active torsions:
REMARK  status: ('A' for Active; 'I' for Inactive)
REMARK    1  A    between atoms: C_6  and  C_20
REMARK    2  A    between atoms: C_10  and  N_25
REMARK    3  A    between atoms: C_11  and  C_19
REMARK    4  A    between atoms: C_19  and  O_30
REMARK                            x       y       z     vdW  Elec       q    Type
REMARK                         _______ _______ _______ _____ _____    ______ ____
ROOT
ATOM      1  C   UNL     1     -15.943  -8.501  -9.107  0.00  0.00    +0.183 A 
ATOM      2  C   UNL     1     -16.991 -10.497  -8.621  0.00  0.00    +0.155 A 
ATOM      3  C   UNL     1     -17.768  -9.851  -7.677  0.00  0.00    +0.181 A 
ATOM      4  C   UNL     1     -17.582  -8.477  -7.484  0.00  0.00    +0.158 A 
ATOM      5  F   UNL     1     -18.688 -10.531  -6.958  0.00  0.00    -0.200 F 
ATOM      6  N   UNL     1     -16.099  -9.802  -9.311  0.00  0.00    -0.231 NA
ATOM      7  N   UNL     1     -16.669  -7.844  -8.211  0.00  0.00    -0.208 NA
ATOM      8  N   UNL     1     -18.340  -7.788  -6.550  0.00  0.00    -0.323 N 
ATOM      9  H   UNL     1     -19.005  -8.258  -6.024  0.00  0.00    +0.148 HD
ENDROOT
BRANCH   1  15
ATOM     10  C   UNL     1     -14.827  -8.442 -13.652  0.00  0.00    +0.142 A 
ATOM     11  C   UNL     1     -15.309  -8.605 -12.366  0.00  0.00    +0.053 A 
ATOM     12  C   UNL     1     -14.710  -7.866 -11.341  0.00  0.00    +0.052 A 
ATOM     13  C   UNL     1     -13.652  -6.991 -11.648  0.00  0.00    +0.156 A 
ATOM     14  C   UNL     1     -13.778  -7.560 -13.881  0.00  0.00    +0.151 A 
ATOM     15  C   UNL     1     -14.929  -7.763  -9.895  0.00  0.00    +0.139 A 
ATOM     16  F   UNL     1     -15.368  -9.138 -14.675  0.00  0.00    -0.204 F 
ATOM     17  N   UNL     1     -13.230  -6.874 -12.901  0.00  0.00    -0.233 NA
ATOM     18  N   UNL     1     -13.267  -6.408 -10.469  0.00  0.00    -0.260 N 
ATOM     19  N   UNL     1     -14.061  -6.898  -9.427  0.00  0.00    -0.168 NA
ATOM     20  H   UNL     1     -12.555  -5.757 -10.371  0.00  0.00    +0.191 HD
ENDBRANCH   1  15
BRANCH   8  21
ATOM     21  C   UNL     1     -18.134  -6.350  -6.358  0.00  0.00    +0.089 C 
ATOM     22  C   UNL     1     -17.203  -6.133  -5.170  0.00  0.00    +0.121 C 
ATOM     23  C   UNL     1     -17.884  -5.301  -4.080  0.00  0.00    +0.008 C 
ATOM     24  C   UNL     1     -19.158  -6.055  -3.630  0.00  0.00    -0.003 C 
ATOM     25  C   UNL     1     -20.107  -6.278  -4.839  0.00  0.00    -0.002 C 
ATOM     26  C   UNL     1     -19.489  -5.677  -6.124  0.00  0.00    +0.013 C 
ATOM     27  C   UNL     1     -19.254  -4.183  -5.876  0.00  0.00    +0.006 C 
ATOM     28  C   UNL     1     -18.322  -3.965  -4.688  0.00  0.00    +0.005 C 
ATOM     29  C   UNL     1     -19.360  -7.456  -4.211  0.00  0.00    +0.008 C 
BRANCH  22  30
ATOM     30  C   UNL     1     -15.964  -5.413  -5.639  0.00  0.00    +0.310 C 
ATOM     31  O   UNL     1     -15.275  -4.817  -4.846  0.00  0.00    -0.251 OA
BRANCH  30  32
ATOM     32  O   UNL     1     -15.627  -5.434  -6.938  0.00  0.00    -0.480 OA
ATOM     33  H   UNL     1     -15.309  -4.606  -7.323  0.00  0.00    +0.295 HD
ENDBRANCH  30  32
ENDBRANCH  22  30
ENDBRANCH   8  21
TORSDOF 4
ENDMDL
MODEL 13
REMARK VINA RESULT:    -6.838      3.852      7.764
REMARK INTER + INTRA:          -9.450
REMARK INTER:                  -7.925
REMARK INTRA:                  -1.525
REMARK UNBOUND:                -1.213
REMARK  Name = A1JV9
REMARK  4 active torsions:
REMARK  status: ('A' for Active; 'I' for Inactive)
REMARK    1  A    between atoms: C_6  and  C_20
REMARK    2  A    between atoms: C_10  and  N_25
REMARK    3  A    between atoms: C_11  and  C_19
REMARK    4  A    between atoms: C_19  and  O_30
REMARK                            x       y       z     vdW  Elec       q    Type
REMARK                         _______ _______ _______ _____ _____    ______ ____
ROOT
ATOM      1  C   UNL     1     -41.514  -6.988  -5.514  0.00  0.00    +0.183 A 
ATOM      2  C   UNL     1     -40.557  -6.694  -3.437  0.00  0.00    +0.155 A 
ATOM      3  C   UNL     1     -40.143  -5.429  -3.814  0.00  0.00    +0.181 A 
ATOM      4  C   UNL     1     -40.455  -4.981  -5.103  0.00  0.00    +0.158 A 
ATOM      5  F   UNL     1     -39.454  -4.644  -2.957  0.00  0.00    -0.200 F 
ATOM      6  N   UNL     1     -41.232  -7.439  -4.300  0.00  0.00    -0.231 NA
ATOM      7  N   UNL     1     -41.134  -5.781  -5.915  0.00  0.00    -0.208 NA
ATOM      8  N   UNL     1     -40.061  -3.720  -5.523  0.00  0.00    -0.323 N 
ATOM      9  H   UNL     1     -39.565  -3.141  -4.923  0.00  0.00    +0.148 HD
ENDROOT
BRANCH   1  15
ATOM     10  C   UNL     1     -40.368  -9.160  -9.498  0.00  0.00    +0.142 A 
ATOM     11  C   UNL     1     -40.500  -8.447  -8.321  0.00  0.00    +0.053 A 
ATOM     12  C   UNL     1     -41.741  -8.465  -7.678  0.00  0.00    +0.052 A 
ATOM     13  C   UNL     1     -42.800  -9.201  -8.241  0.00  0.00    +0.156 A 
ATOM     14  C   UNL     1     -41.458  -9.864  -9.996  0.00  0.00    +0.151 A 
ATOM     15  C   UNL     1     -42.264  -7.856  -6.450  0.00  0.00    +0.139 A 
ATOM     16  F   UNL     1     -39.191  -9.169 -10.161  0.00  0.00    -0.204 F 
ATOM     17  N   UNL     1     -42.616  -9.868  -9.373  0.00  0.00    -0.233 NA
ATOM     18  N   UNL     1     -43.877  -9.042  -7.408  0.00  0.00    -0.260 N 
ATOM     19  N   UNL     1     -43.518  -8.222  -6.334  0.00  0.00    -0.168 NA
ATOM     20  H   UNL     1     -44.753  -9.436  -7.543  0.00  0.00    +0.191 HD
ENDBRANCH   1  15
BRANCH   8  21
ATOM     21  C   UNL     1     -40.393  -3.262  -6.875  0.00  0.00    +0.089 C 
ATOM     22  C   UNL     1     -39.274  -3.664  -7.828  0.00  0.00    +0.121 C 
ATOM     23  C   UNL     1     -38.654  -2.436  -8.501  0.00  0.00    +0.008 C 
ATOM     24  C   UNL     1     -38.106  -1.508  -7.390  0.00  0.00    -0.003 C 
ATOM     25  C   UNL     1     -39.246  -1.099  -6.419  0.00  0.00    -0.002 C 
ATOM     26  C   UNL     1     -40.583  -1.743  -6.858  0.00  0.00    +0.013 C 
ATOM     27  C   UNL     1     -40.881  -1.274  -8.286  0.00  0.00    +0.006 C 
ATOM     28  C   UNL     1     -39.761  -1.676  -9.240  0.00  0.00    +0.005 C 
ATOM     29  C   UNL     1     -38.145  -2.059  -5.964  0.00  0.00    +0.008 C 
BRANCH  22  30
ATOM     30  C   UNL     1     -39.831  -4.580  -8.888  0.00  0.00    +0.310 C 
ATOM     31  O   UNL     1     -39.125  -4.957  -9.793  0.00  0.00    -0.251 OA
BRANCH  30  32
ATOM     32  O   UNL     1     -41.112  -4.974  -8.828  0.00  0.00    -0.480 OA
ATOM     33  H   UNL     1     -41.679  -4.530  -8.183  0.00  0.00    +0.295 HD
ENDBRANCH  30  32
ENDBRANCH  22  30
ENDBRANCH   8  21
TORSDOF 4
ENDMDL
MODEL 14
REMARK VINA RESULT:    -6.838     25.536     28.071
REMARK INTER + INTRA:          -9.450
REMARK INTER:                  -8.121
REMARK INTRA:                  -1.329
REMARK UNBOUND:                -1.213
REMARK  Name = A1JV9
REMARK  4 active torsions:
REMARK  status: ('A' for Active; 'I' for Inactive)
REMARK    1  A    between atoms: C_6  and  C_20
REMARK    2  A    between atoms: C_10  and  N_25
REMARK    3  A    between atoms: C_11  and  C_19
REMARK    4  A    between atoms: C_19  and  O_30
REMARK                            x       y       z     vdW  Elec       q    Type
REMARK                         _______ _______ _______ _____ _____    ______ ____
ROOT
ATOM      1  C   UNL     1     -22.798   5.445 -27.649  0.00  0.00    +0.183 A 
ATOM      2  C   UNL     1     -23.345   6.030 -29.811  0.00  0.00    +0.155 A 
ATOM      3  C   UNL     1     -23.275   7.366 -29.461  0.00  0.00    +0.181 A 
ATOM      4  C   UNL     1     -22.950   7.693 -28.139  0.00  0.00    +0.158 A 
ATOM      5  F   UNL     1     -23.514   8.333 -30.373  0.00  0.00    -0.200 F 
ATOM      6  N   UNL     1     -23.104   5.106 -28.894  0.00  0.00    -0.231 NA
ATOM      7  N   UNL     1     -22.721   6.715 -27.272  0.00  0.00    -0.208 NA
ATOM      8  N   UNL     1     -22.867   9.019 -27.743  0.00  0.00    -0.323 N 
ATOM      9  H   UNL     1     -23.035   9.729 -28.383  0.00  0.00    +0.148 HD
ENDROOT
BRANCH   1  15
ATOM     10  C   UNL     1     -25.434   3.452 -24.334  0.00  0.00    +0.142 A 
ATOM     11  C   UNL     1     -24.832   4.161 -25.358  0.00  0.00    +0.053 A 
ATOM     12  C   UNL     1     -23.501   3.866 -25.667  0.00  0.00    +0.052 A 
ATOM     13  C   UNL     1     -22.827   2.868 -24.938  0.00  0.00    +0.156 A 
ATOM     14  C   UNL     1     -24.706   2.482 -23.657  0.00  0.00    +0.151 A 
ATOM     15  C   UNL     1     -22.544   4.380 -26.652  0.00  0.00    +0.139 A 
ATOM     16  F   UNL     1     -26.716   3.705 -23.993  0.00  0.00    -0.204 F 
ATOM     17  N   UNL     1     -23.455   2.220 -23.966  0.00  0.00    -0.233 NA
ATOM     18  N   UNL     1     -21.559   2.794 -25.451  0.00  0.00    -0.260 N 
ATOM     19  N   UNL     1     -21.420   3.722 -26.488  0.00  0.00    -0.168 NA
ATOM     20  H   UNL     1     -20.864   2.191 -25.144  0.00  0.00    +0.191 HD
ENDBRANCH   1  15
BRANCH   8  21
ATOM     21  C   UNL     1     -22.526   9.349 -26.357  0.00  0.00    +0.089 C 
ATOM     22  C   UNL     1     -23.789   9.784 -25.621  0.00  0.00    +0.121 C 
ATOM     23  C   UNL     1     -23.650  11.210 -25.082  0.00  0.00    +0.008 C 
ATOM     24  C   UNL     1     -23.377  12.150 -26.281  0.00  0.00    -0.003 C 
ATOM     25  C   UNL     1     -22.091  11.708 -27.030  0.00  0.00    -0.002 C 
ATOM     26  C   UNL     1     -21.474  10.462 -26.350  0.00  0.00    +0.013 C 
ATOM     27  C   UNL     1     -21.164  10.830 -24.895  0.00  0.00    +0.006 C 
ATOM     28  C   UNL     1     -22.428  11.265 -24.158  0.00  0.00    +0.005 C 
ATOM     29  C   UNL     1     -23.467  11.521 -27.672  0.00  0.00    +0.008 C 
BRANCH  22  30
ATOM     30  C   UNL     1     -24.040   8.843 -24.471  0.00  0.00    +0.310 C 
ATOM     31  O   UNL     1     -24.627   9.232 -23.489  0.00  0.00    -0.251 OA
BRANCH  30  32
ATOM     32  O   UNL     1     -23.612   7.573 -24.537  0.00  0.00    -0.480 OA
ATOM     33  H   UNL     1     -22.811   7.353 -24.042  0.00  0.00    +0.295 HD
ENDBRANCH  30  32
ENDBRANCH  22  30
ENDBRANCH   8  21
TORSDOF 4
ENDMDL
MODEL 15
REMARK VINA RESULT:    -6.819     25.129     27.475
REMARK INTER + INTRA:          -9.427
REMARK INTER:                  -8.214
REMARK INTRA:                  -1.213
REMARK UNBOUND:                -1.213
REMARK  Name = A1JV9
REMARK  4 active torsions:
REMARK  status: ('A' for Active; 'I' for Inactive)
REMARK    1  A    between atoms: C_6  and  C_20
REMARK    2  A    between atoms: C_10  and  N_25
REMARK    3  A    between atoms: C_11  and  C_19
REMARK    4  A    between atoms: C_19  and  O_30
REMARK                            x       y       z     vdW  Elec       q    Type
REMARK                         _______ _______ _______ _____ _____    ______ ____
ROOT
ATOM      1  C   UNL     1     -23.653   4.082 -24.831  0.00  0.00    +0.183 A 
ATOM      2  C   UNL     1     -24.154   6.314 -24.537  0.00  0.00    +0.155 A 
ATOM      3  C   UNL     1     -23.289   6.637 -25.566  0.00  0.00    +0.181 A 
ATOM      4  C   UNL     1     -22.607   5.602 -26.216  0.00  0.00    +0.158 A 
ATOM      5  F   UNL     1     -23.107   7.923 -25.937  0.00  0.00    -0.200 F 
ATOM      6  N   UNL     1     -24.312   5.044 -24.198  0.00  0.00    -0.231 NA
ATOM      7  N   UNL     1     -22.814   4.351 -25.824  0.00  0.00    -0.208 NA
ATOM      8  N   UNL     1     -21.732   5.878 -27.254  0.00  0.00    -0.323 N 
ATOM      9  H   UNL     1     -21.587   6.796 -27.535  0.00  0.00    +0.148 HD
ENDROOT
BRANCH   1  15
ATOM     10  C   UNL     1     -27.427   1.606 -23.594  0.00  0.00    +0.142 A 
ATOM     11  C   UNL     1     -26.451   2.504 -23.985  0.00  0.00    +0.053 A 
ATOM     12  C   UNL     1     -25.130   2.051 -24.054  0.00  0.00    +0.052 A 
ATOM     13  C   UNL     1     -24.842   0.712 -23.730  0.00  0.00    +0.156 A 
ATOM     14  C   UNL     1     -27.068   0.299 -23.288  0.00  0.00    +0.151 A 
ATOM     15  C   UNL     1     -23.853   2.676 -24.415  0.00  0.00    +0.139 A 
ATOM     16  F   UNL     1     -28.716   1.997 -23.505  0.00  0.00    -0.204 F 
ATOM     17  N   UNL     1     -25.819  -0.107 -23.361  0.00  0.00    -0.233 NA
ATOM     18  N   UNL     1     -23.490   0.551 -23.886  0.00  0.00    -0.260 N 
ATOM     19  N   UNL     1     -22.922   1.759 -24.302  0.00  0.00    -0.168 NA
ATOM     20  H   UNL     1     -23.002  -0.273 -23.732  0.00  0.00    +0.191 HD
ENDBRANCH   1  15
BRANCH   8  21
ATOM     21  C   UNL     1     -21.024   4.785 -27.926  0.00  0.00    +0.089 C 
ATOM     22  C   UNL     1     -19.592   4.721 -27.405  0.00  0.00    +0.121 C 
ATOM     23  C   UNL     1     -18.583   4.915 -28.539  0.00  0.00    +0.008 C 
ATOM     24  C   UNL     1     -18.855   6.291 -29.192  0.00  0.00    -0.003 C 
ATOM     25  C   UNL     1     -20.313   6.357 -29.723  0.00  0.00    -0.002 C 
ATOM     26  C   UNL     1     -21.049   5.026 -29.438  0.00  0.00    +0.013 C 
ATOM     27  C   UNL     1     -20.264   3.902 -30.123  0.00  0.00    +0.006 C 
ATOM     28  C   UNL     1     -18.831   3.838 -29.601  0.00  0.00    +0.005 C 
ATOM     29  C   UNL     1     -19.893   7.178 -28.501  0.00  0.00    +0.008 C 
BRANCH  22  30
ATOM     30  C   UNL     1     -19.360   3.379 -26.760  0.00  0.00    +0.310 C 
ATOM     31  O   UNL     1     -18.240   2.933 -26.679  0.00  0.00    -0.251 OA
BRANCH  30  32
ATOM     32  O   UNL     1     -20.398   2.678 -26.278  0.00  0.00    -0.480 OA
ATOM     33  H   UNL     1     -20.439   2.556 -25.319  0.00  0.00    +0.295 HD
ENDBRANCH  30  32
ENDBRANCH  22  30
ENDBRANCH   8  21
TORSDOF 4
ENDMDL
