REMARK SMILES O=C([O-])[C@H]1[C@H]2CC[C@H]([C@H]3C[C@H]32)[C@@H]1Nc1nc(-c2n[nH]c3ncc(F)cc23)ncc1F
REMARK SMILES IDX 13 1 14 3 16 4 27 5 15 6 28 7 29 8 30 9 17 10 23 11 25 12
REMARK SMILES IDX 22 13 26 14 21 15 20 16 19 17 18 18 24 19 12 21 4 22 8 23
REMARK SMILES IDX 5 24 9 25 7 26 11 27 6 28 10 29 2 30 1 31 3 32
REMARK H PARENT 13 2 19 20
ROOT
ATOM      1  N   UNL     1      -1.953   1.092  -0.204  1.00  0.00    -0.364 N 
ATOM      2  H   UNL     1      -2.892   0.800  -0.146  1.00  0.00     0.162 HD
ENDROOT
BRANCH   1   3
ATOM      3  C   UNL     1      -0.969   0.214   0.213  1.00  0.00     0.166 A 
ATOM      4  C   UNL     1      -0.436  -1.502   1.669  1.00  0.00     0.182 A 
ATOM      5  N   UNL     1       0.814  -1.644   1.188  1.00  0.00    -0.232 NA
ATOM      6  N   UNL     1      -1.342  -0.602   1.213  1.00  0.00    -0.206 NA
ATOM      7  C   UNL     1       1.153  -0.820   0.184  1.00  0.00     0.156 A 
ATOM      8  C   UNL     1       0.301   0.124  -0.340  1.00  0.00     0.183 A 
ATOM      9  F   UNL     1       0.710   0.892  -1.356  1.00  0.00    -0.201 F 
BRANCH   4  10
ATOM     10  C   UNL     1      -0.818  -2.301   2.853  1.00  0.00     0.139 A 
ATOM     11  C   UNL     1      -4.188  -1.722   4.512  1.00  0.00     0.142 A 
ATOM     12  C   UNL     1      -3.280  -1.550   3.473  1.00  0.00     0.055 A 
ATOM     13  C   UNL     1      -3.864  -2.542   5.585  1.00  0.00     0.152 A 
ATOM     14  C   UNL     1      -2.054  -2.227   3.580  1.00  0.00     0.053 A 
ATOM     15  N   UNL     1      -2.711  -3.247   5.715  1.00  0.00    -0.234 NA
ATOM     16  C   UNL     1      -1.868  -3.041   4.686  1.00  0.00     0.156 A 
ATOM     17  N   UNL     1      -0.634  -3.598   4.535  1.00  0.00    -0.260 N 
ATOM     18  N   UNL     1       0.026  -3.181   3.442  1.00  0.00    -0.170 NA
ATOM     19  F   UNL     1      -5.369  -1.084   4.481  1.00  0.00    -0.205 F 
ATOM     20  H   UNL     1      -0.260  -4.249   5.172  1.00  0.00     0.192 HD
ENDBRANCH   4  10
ENDBRANCH   1   3
BRANCH   1  21
ATOM     21  C   UNL     1      -1.675   2.437  -0.731  1.00  0.00     0.093 C 
ATOM     22  C   UNL     1      -1.013   3.385   0.306  1.00  0.00     0.061 C 
ATOM     23  C   UNL     1      -3.016   3.079  -1.253  1.00  0.00     0.015 C 
ATOM     24  C   UNL     1      -1.754   4.744   0.284  1.00  0.00     0.003 C 
ATOM     25  C   UNL     1      -3.930   3.646  -0.166  1.00  0.00    -0.002 C 
ATOM     26  C   UNL     1      -2.612   4.314  -2.088  1.00  0.00     0.006 C 
ATOM     27  C   UNL     1      -3.188   4.580   0.757  1.00  0.00    -0.004 C 
ATOM     28  C   UNL     1      -1.796   5.268  -1.189  1.00  0.00     0.005 C 
ATOM     29  C   UNL     1      -3.865   3.336   1.299  1.00  0.00     0.008 C 
BRANCH  22  30
ATOM     30  C   UNL     1       0.447   3.692   0.022  1.00  0.00     0.047 C 
ATOM     31  O   UNL     1       1.054   3.555  -1.025  1.00  0.00    -0.550 OA
ATOM     32  O   UNL     1       1.040   4.295   1.073  1.00  0.00    -0.550 OA
ENDBRANCH  22  30
ENDBRANCH   1  21
TORSDOF 4
