MODEL 1
REMARK VINA RESULT:     -10.1      0.000      0.000
REMARK SMILES Cc1nn(C)c(C)c1NS(=O)(=O)c1c(Cl)cc(-c2ccnc(N3CC[NH2+]CC3)c2)cc1Cl
REMARK SMILES IDX 16 1 30 2 14 3 31 4 17 5 13 6 15 7 32 8 10 9 11 10 12 11
REMARK SMILES IDX 9 12 8 14 2 15 3 16 6 17 4 18 1 19 7 20 5 21 18 22 19 23
REMARK SMILES IDX 29 24 20 25 22 26 21 27 23 28 24 29 28 30 25 31 27 32 26 33
REMARK H PARENT 9 13 26 34 26 35
ROOT
ATOM      1  C   UNL     1      -4.688  68.308   0.951  1.00  0.00     0.030 A 
ATOM      2  C   UNL     1      -6.660  68.118   2.270  1.00  0.00     0.030 A 
ATOM      3  C   UNL     1      -3.898  67.925   2.056  1.00  0.00     0.063 A 
ATOM      4  C   UNL     1      -5.890  67.757   3.390  1.00  0.00     0.063 A 
ATOM      5  C   UNL     1      -6.081  68.415   1.028  1.00  0.00    -0.015 A 
ATOM      6  C   UNL     1      -4.494  67.657   3.295  1.00  0.00     0.124 A 
ATOM      7  Cl  UNL     1      -2.208  67.830   1.710  1.00  0.00    -0.083 Cl
ATOM      8  Cl  UNL     1      -6.800  67.493   4.842  1.00  0.00    -0.083 Cl
ENDROOT
BRANCH   6   9
ATOM      9  S   UNL     1      -3.561  67.151   4.716  1.00  0.00     0.264 S 
ATOM     10  O   UNL     1      -2.173  66.919   4.387  1.00  0.00    -0.201 OA
ATOM     11  O   UNL     1      -4.306  66.099   5.374  1.00  0.00    -0.201 OA
BRANCH   9  12
ATOM     12  N   UNL     1      -3.643  68.513   5.742  1.00  0.00    -0.276 N 
ATOM     13  H   UNL     1      -4.173  68.475   6.571  1.00  0.00     0.180 HD
BRANCH  12  14
ATOM     14  C   UNL     1      -2.953  69.685   5.401  1.00  0.00     0.093 A 
ATOM     15  C   UNL     1      -3.509  70.816   4.753  1.00  0.00     0.084 A 
ATOM     16  N   UNL     1      -2.607  71.792   4.601  1.00  0.00    -0.176 NA
ATOM     17  C   UNL     1      -1.650  70.038   5.686  1.00  0.00     0.059 A 
ATOM     18  N   UNL     1      -1.485  71.291   5.147  1.00  0.00    -0.270 N 
ATOM     19  C   UNL     1      -4.900  71.046   4.298  1.00  0.00     0.071 C 
ATOM     20  C   UNL     1      -0.551  69.304   6.366  1.00  0.00     0.069 C 
ATOM     21  C   UNL     1      -0.297  72.113   5.118  1.00  0.00     0.174 C 
ENDBRANCH  12  14
ENDBRANCH   9  12
ENDBRANCH   6   9
BRANCH   5  22
ATOM     22  C   UNL     1      -6.909  68.823  -0.134  1.00  0.00    -0.013 A 
ATOM     23  C   UNL     1      -8.302  68.815  -0.107  1.00  0.00     0.029 A 
ATOM     24  C   UNL     1      -6.309  69.263  -1.327  1.00  0.00     0.055 A 
ATOM     25  C   UNL     1      -8.995  69.260  -1.222  1.00  0.00     0.114 A 
ATOM     26  C   UNL     1      -7.061  69.710  -2.417  1.00  0.00     0.129 A 
ATOM     27  N   UNL     1      -8.406  69.716  -2.349  1.00  0.00    -0.239 NA
BRANCH  26  28
ATOM     28  N   UNL     1      -6.431  70.201  -3.543  1.00  0.00    -0.345 N 
ATOM     29  C   UNL     1      -6.520  69.467  -4.811  1.00  0.00     0.179 C 
ATOM     30  C   UNL     1      -5.375  71.214  -3.445  1.00  0.00     0.179 C 
ATOM     31  C   UNL     1      -5.131  69.020  -5.315  1.00  0.00     0.282 C 
ATOM     32  C   UNL     1      -4.033  70.687  -3.998  1.00  0.00     0.282 C 
ATOM     33  N   UNL     1      -4.133  70.111  -5.352  1.00  0.00    -0.343 N 
ATOM     34  H   UNL     1      -4.430  70.830  -6.012  1.00  0.00     0.346 HD
ATOM     35  H   UNL     1      -3.226  69.751  -5.651  1.00  0.00     0.346 HD
ENDBRANCH  26  28
ENDBRANCH   5  22
TORSDOF 5
ENDMDL
MODEL 2
REMARK VINA RESULT:     -10.0      1.599      2.054
REMARK SMILES Cc1nn(C)c(C)c1NS(=O)(=O)c1c(Cl)cc(-c2ccnc(N3CC[NH2+]CC3)c2)cc1Cl
REMARK SMILES IDX 16 1 30 2 14 3 31 4 17 5 13 6 15 7 32 8 10 9 11 10 12 11
REMARK SMILES IDX 9 12 8 14 2 15 3 16 6 17 4 18 1 19 7 20 5 21 18 22 19 23
REMARK SMILES IDX 29 24 20 25 22 26 21 27 23 28 24 29 28 30 25 31 27 32 26 33
REMARK H PARENT 9 13 26 34 26 35
ROOT
ATOM      1  C   UNL     1      -5.586  69.157   2.285  1.00  0.00     0.030 A 
ATOM      2  C   UNL     1      -5.348  66.977   1.361  1.00  0.00     0.030 A 
ATOM      3  C   UNL     1      -4.808  68.782   3.401  1.00  0.00     0.063 A 
ATOM      4  C   UNL     1      -4.590  66.574   2.475  1.00  0.00     0.063 A 
ATOM      5  C   UNL     1      -5.875  68.270   1.241  1.00  0.00    -0.015 A 
ATOM      6  C   UNL     1      -4.312  67.477   3.512  1.00  0.00     0.124 A 
ATOM      7  Cl  UNL     1      -4.557  70.055   4.540  1.00  0.00    -0.083 Cl
ATOM      8  Cl  UNL     1      -4.088  64.916   2.451  1.00  0.00    -0.083 Cl
ENDROOT
BRANCH   6   9
ATOM      9  S   UNL     1      -3.312  66.947   4.878  1.00  0.00     0.264 S 
ATOM     10  O   UNL     1      -3.490  65.539   5.153  1.00  0.00    -0.201 OA
ATOM     11  O   UNL     1      -3.506  67.896   5.954  1.00  0.00    -0.201 OA
BRANCH   9  12
ATOM     12  N   UNL     1      -1.720  67.180   4.311  1.00  0.00    -0.276 N 
ATOM     13  H   UNL     1      -1.094  66.422   4.271  1.00  0.00     0.180 HD
BRANCH  12  14
ATOM     14  C   UNL     1      -1.306  68.456   3.901  1.00  0.00     0.093 A 
ATOM     15  C   UNL     1      -1.238  68.916   2.562  1.00  0.00     0.084 A 
ATOM     16  N   UNL     1      -0.843  70.192   2.498  1.00  0.00    -0.176 NA
ATOM     17  C   UNL     1      -0.968  69.549   4.674  1.00  0.00     0.059 A 
ATOM     18  N   UNL     1      -0.661  70.546   3.782  1.00  0.00    -0.270 N 
ATOM     19  C   UNL     1      -1.582  68.205   1.309  1.00  0.00     0.071 C 
ATOM     20  C   UNL     1      -0.868  69.727   6.146  1.00  0.00     0.069 C 
ATOM     21  C   UNL     1      -0.200  71.889   4.051  1.00  0.00     0.174 C 
ENDBRANCH  12  14
ENDBRANCH   9  12
ENDBRANCH   6   9
BRANCH   5  22
ATOM     22  C   UNL     1      -6.698  68.667   0.071  1.00  0.00    -0.013 A 
ATOM     23  C   UNL     1      -8.089  68.574   0.062  1.00  0.00     0.029 A 
ATOM     24  C   UNL     1      -6.098  69.181  -1.091  1.00  0.00     0.055 A 
ATOM     25  C   UNL     1      -8.780  69.014  -1.056  1.00  0.00     0.114 A 
ATOM     26  C   UNL     1      -6.849  69.617  -2.185  1.00  0.00     0.129 A 
ATOM     27  N   UNL     1      -8.194  69.541  -2.152  1.00  0.00    -0.239 NA
BRANCH  26  28
ATOM     28  N   UNL     1      -6.223  70.182  -3.279  1.00  0.00    -0.345 N 
ATOM     29  C   UNL     1      -6.266  69.503  -4.579  1.00  0.00     0.179 C 
ATOM     30  C   UNL     1      -5.209  71.230  -3.120  1.00  0.00     0.179 C 
ATOM     31  C   UNL     1      -4.854  69.132  -5.081  1.00  0.00     0.282 C 
ATOM     32  C   UNL     1      -3.840  70.780  -3.675  1.00  0.00     0.282 C 
ATOM     33  N   UNL     1      -3.900  70.262  -5.054  1.00  0.00    -0.343 N 
ATOM     34  H   UNL     1      -4.216  70.997  -5.687  1.00  0.00     0.346 HD
ATOM     35  H   UNL     1      -2.975  69.951  -5.355  1.00  0.00     0.346 HD
ENDBRANCH  26  28
ENDBRANCH   5  22
TORSDOF 5
ENDMDL
MODEL 3
REMARK VINA RESULT:      -9.9      2.020      2.650
REMARK SMILES Cc1nn(C)c(C)c1NS(=O)(=O)c1c(Cl)cc(-c2ccnc(N3CC[NH2+]CC3)c2)cc1Cl
REMARK SMILES IDX 16 1 30 2 14 3 31 4 17 5 13 6 15 7 32 8 10 9 11 10 12 11
REMARK SMILES IDX 9 12 8 14 2 15 3 16 6 17 4 18 1 19 7 20 5 21 18 22 19 23
REMARK SMILES IDX 29 24 20 25 22 26 21 27 23 28 24 29 28 30 25 31 27 32 26 33
REMARK H PARENT 9 13 26 34 26 35
ROOT
ATOM      1  C   UNL     1      -6.163  68.961   2.170  1.00  0.00     0.030 A 
ATOM      2  C   UNL     1      -6.051  66.893   0.998  1.00  0.00     0.030 A 
ATOM      3  C   UNL     1      -5.516  68.380   3.281  1.00  0.00     0.063 A 
ATOM      4  C   UNL     1      -5.427  66.287   2.104  1.00  0.00     0.063 A 
ATOM      5  C   UNL     1      -6.446  68.238   1.005  1.00  0.00    -0.015 A 
ATOM      6  C   UNL     1      -5.153  67.028   3.263  1.00  0.00     0.124 A 
ATOM      7  Cl  UNL     1      -5.243  69.478   4.587  1.00  0.00    -0.083 Cl
ATOM      8  Cl  UNL     1      -5.079  64.600   1.907  1.00  0.00    -0.083 Cl
ENDROOT
BRANCH   6   9
ATOM      9  S   UNL     1      -4.321  66.241   4.618  1.00  0.00     0.264 S 
ATOM     10  O   UNL     1      -4.880  64.940   4.903  1.00  0.00    -0.201 OA
ATOM     11  O   UNL     1      -4.227  67.208   5.691  1.00  0.00    -0.201 OA
BRANCH   9  12
ATOM     12  N   UNL     1      -2.735  66.021   4.028  1.00  0.00    -0.276 N 
ATOM     13  H   UNL     1      -2.446  65.137   3.707  1.00  0.00     0.180 HD
BRANCH  12  14
ATOM     14  C   UNL     1      -1.844  67.104   4.002  1.00  0.00     0.093 A 
ATOM     15  C   UNL     1      -0.947  67.466   5.037  1.00  0.00     0.084 A 
ATOM     16  N   UNL     1      -0.200  68.522   4.698  1.00  0.00    -0.176 NA
ATOM     17  C   UNL     1      -1.576  67.981   2.970  1.00  0.00     0.059 A 
ATOM     18  N   UNL     1      -0.614  68.833   3.457  1.00  0.00    -0.270 N 
ATOM     19  C   UNL     1      -0.721  66.817   6.350  1.00  0.00     0.071 C 
ATOM     20  C   UNL     1      -2.158  68.119   1.611  1.00  0.00     0.069 C 
ATOM     21  C   UNL     1      -0.003  69.971   2.809  1.00  0.00     0.174 C 
ENDBRANCH  12  14
ENDBRANCH   9  12
ENDBRANCH   6   9
BRANCH   5  22
ATOM     22  C   UNL     1      -7.130  68.851  -0.160  1.00  0.00    -0.013 A 
ATOM     23  C   UNL     1      -8.511  69.035  -0.211  1.00  0.00     0.029 A 
ATOM     24  C   UNL     1      -6.398  69.298  -1.273  1.00  0.00     0.055 A 
ATOM     25  C   UNL     1      -9.060  69.662  -1.319  1.00  0.00     0.114 A 
ATOM     26  C   UNL     1      -7.007  69.933  -2.358  1.00  0.00     0.129 A 
ATOM     27  N   UNL     1      -8.341  70.121  -2.366  1.00  0.00    -0.239 NA
BRANCH  26  28
ATOM     28  N   UNL     1      -6.242  70.421  -3.399  1.00  0.00    -0.345 N 
ATOM     29  C   UNL     1      -6.238  69.728  -4.693  1.00  0.00     0.179 C 
ATOM     30  C   UNL     1      -5.152  71.373  -3.162  1.00  0.00     0.179 C 
ATOM     31  C   UNL     1      -4.829  69.222  -5.070  1.00  0.00     0.282 C 
ATOM     32  C   UNL     1      -3.789  70.792  -3.595  1.00  0.00     0.282 C 
ATOM     33  N   UNL     1      -3.780  70.260  -4.971  1.00  0.00    -0.343 N 
ATOM     34  H   UNL     1      -3.972  71.012  -5.633  1.00  0.00     0.346 HD
ATOM     35  H   UNL     1      -2.866  69.861  -5.189  1.00  0.00     0.346 HD
ENDBRANCH  26  28
ENDBRANCH   5  22
TORSDOF 5
ENDMDL
MODEL 4
REMARK VINA RESULT:      -9.9      0.996      1.780
REMARK SMILES Cc1nn(C)c(C)c1NS(=O)(=O)c1c(Cl)cc(-c2ccnc(N3CC[NH2+]CC3)c2)cc1Cl
REMARK SMILES IDX 16 1 30 2 14 3 31 4 17 5 13 6 15 7 32 8 10 9 11 10 12 11
REMARK SMILES IDX 9 12 8 14 2 15 3 16 6 17 4 18 1 19 7 20 5 21 18 22 19 23
REMARK SMILES IDX 29 24 20 25 22 26 21 27 23 28 24 29 28 30 25 31 27 32 26 33
REMARK H PARENT 9 13 26 34 26 35
ROOT
ATOM      1  C   UNL     1      -4.369  68.175   0.984  1.00  0.00     0.030 A 
ATOM      2  C   UNL     1      -6.275  67.198   2.025  1.00  0.00     0.030 A 
ATOM      3  C   UNL     1      -3.526  67.586   1.950  1.00  0.00     0.063 A 
ATOM      4  C   UNL     1      -5.454  66.622   3.012  1.00  0.00     0.063 A 
ATOM      5  C   UNL     1      -5.758  67.998   0.995  1.00  0.00    -0.015 A 
ATOM      6  C   UNL     1      -4.065  66.812   2.985  1.00  0.00     0.124 A 
ATOM      7  Cl  UNL     1      -1.848  67.918   1.710  1.00  0.00    -0.083 Cl
ATOM      8  Cl  UNL     1      -6.304  65.723   4.226  1.00  0.00    -0.083 Cl
ENDROOT
BRANCH   6   9
ATOM      9  S   UNL     1      -3.059  66.028   4.219  1.00  0.00     0.264 S 
ATOM     10  O   UNL     1      -1.675  65.954   3.809  1.00  0.00    -0.201 OA
ATOM     11  O   UNL     1      -3.732  64.811   4.620  1.00  0.00    -0.201 OA
BRANCH   9  12
ATOM     12  N   UNL     1      -3.165  67.097   5.545  1.00  0.00    -0.276 N 
ATOM     13  H   UNL     1      -3.663  66.834   6.352  1.00  0.00     0.180 HD
BRANCH  12  14
ATOM     14  C   UNL     1      -2.540  68.351   5.482  1.00  0.00     0.093 A 
ATOM     15  C   UNL     1      -1.180  68.615   5.780  1.00  0.00     0.084 A 
ATOM     16  N   UNL     1      -0.873  69.903   5.588  1.00  0.00    -0.176 NA
ATOM     17  C   UNL     1      -3.054  69.555   5.045  1.00  0.00     0.059 A 
ATOM     18  N   UNL     1      -2.025  70.456   5.170  1.00  0.00    -0.270 N 
ATOM     19  C   UNL     1      -0.114  67.678   6.205  1.00  0.00     0.071 C 
ATOM     20  C   UNL     1      -4.408  69.941   4.572  1.00  0.00     0.069 C 
ATOM     21  C   UNL     1      -2.029  71.875   4.895  1.00  0.00     0.174 C 
ENDBRANCH  12  14
ENDBRANCH   9  12
ENDBRANCH   6   9
BRANCH   5  22
ATOM     22  C   UNL     1      -6.643  68.622  -0.019  1.00  0.00    -0.013 A 
ATOM     23  C   UNL     1      -8.012  68.793   0.178  1.00  0.00     0.029 A 
ATOM     24  C   UNL     1      -6.123  69.095  -1.237  1.00  0.00     0.055 A 
ATOM     25  C   UNL     1      -8.754  69.431  -0.804  1.00  0.00     0.114 A 
ATOM     26  C   UNL     1      -6.920  69.740  -2.186  1.00  0.00     0.129 A 
ATOM     27  N   UNL     1      -8.235  69.914  -1.953  1.00  0.00    -0.239 NA
BRANCH  26  28
ATOM     28  N   UNL     1      -6.356  70.252  -3.337  1.00  0.00    -0.345 N 
ATOM     29  C   UNL     1      -6.531  69.551  -4.614  1.00  0.00     0.179 C 
ATOM     30  C   UNL     1      -5.284  71.252  -3.280  1.00  0.00     0.179 C 
ATOM     31  C   UNL     1      -5.182  69.102  -5.214  1.00  0.00     0.282 C 
ATOM     32  C   UNL     1      -3.985  70.726  -3.928  1.00  0.00     0.282 C 
ATOM     33  N   UNL     1      -4.176  70.185  -5.287  1.00  0.00    -0.343 N 
ATOM     34  H   UNL     1      -4.505  70.923  -5.910  1.00  0.00     0.346 HD
ATOM     35  H   UNL     1      -3.293  69.823  -5.650  1.00  0.00     0.346 HD
ENDBRANCH  26  28
ENDBRANCH   5  22
TORSDOF 5
ENDMDL
MODEL 5
REMARK VINA RESULT:      -9.4      2.562      3.796
REMARK SMILES Cc1nn(C)c(C)c1NS(=O)(=O)c1c(Cl)cc(-c2ccnc(N3CC[NH2+]CC3)c2)cc1Cl
REMARK SMILES IDX 16 1 30 2 14 3 31 4 17 5 13 6 15 7 32 8 10 9 11 10 12 11
REMARK SMILES IDX 9 12 8 14 2 15 3 16 6 17 4 18 1 19 7 20 5 21 18 22 19 23
REMARK SMILES IDX 29 24 20 25 22 26 21 27 23 28 24 29 28 30 25 31 27 32 26 33
REMARK H PARENT 9 13 26 34 26 35
ROOT
ATOM      1  C   UNL     1      -4.275  69.051   2.744  1.00  0.00     0.030 A 
ATOM      2  C   UNL     1      -2.911  68.376   0.915  1.00  0.00     0.030 A 
ATOM      3  C   UNL     1      -3.126  69.359   3.502  1.00  0.00     0.063 A 
ATOM      4  C   UNL     1      -1.752  68.654   1.661  1.00  0.00     0.063 A 
ATOM      5  C   UNL     1      -4.200  68.554   1.438  1.00  0.00    -0.015 A 
ATOM      6  C   UNL     1      -1.848  69.151   2.969  1.00  0.00     0.124 A 
ATOM      7  Cl  UNL     1      -3.472  69.992   5.072  1.00  0.00    -0.083 Cl
ATOM      8  Cl  UNL     1      -0.263  68.305   0.846  1.00  0.00    -0.083 Cl
ENDROOT
BRANCH   6   9
ATOM      9  S   UNL     1      -0.364  69.536   3.862  1.00  0.00     0.264 S 
ATOM     10  O   UNL     1      -0.579  70.599   4.817  1.00  0.00    -0.201 OA
ATOM     11  O   UNL     1       0.702  69.677   2.893  1.00  0.00    -0.201 OA
BRANCH   9  12
ATOM     12  N   UNL     1      -0.044  68.100   4.726  1.00  0.00    -0.276 N 
ATOM     13  H   UNL     1       0.749  67.559   4.507  1.00  0.00     0.180 HD
BRANCH  12  14
ATOM     14  C   UNL     1      -0.912  67.694   5.749  1.00  0.00     0.093 A 
ATOM     15  C   UNL     1      -1.923  66.707   5.637  1.00  0.00     0.084 A 
ATOM     16  N   UNL     1      -2.557  66.514   6.798  1.00  0.00    -0.176 NA
ATOM     17  C   UNL     1      -0.928  68.075   7.076  1.00  0.00     0.059 A 
ATOM     18  N   UNL     1      -1.959  67.369   7.646  1.00  0.00    -0.270 N 
ATOM     19  C   UNL     1      -2.298  65.880   4.466  1.00  0.00     0.071 C 
ATOM     20  C   UNL     1      -0.109  69.055   7.834  1.00  0.00     0.069 C 
ATOM     21  C   UNL     1      -2.445  67.419   9.005  1.00  0.00     0.174 C 
ENDBRANCH  12  14
ENDBRANCH   9  12
ENDBRANCH   6   9
BRANCH   5  22
ATOM     22  C   UNL     1      -5.410  68.225   0.645  1.00  0.00    -0.013 A 
ATOM     23  C   UNL     1      -6.420  67.391   1.122  1.00  0.00     0.029 A 
ATOM     24  C   UNL     1      -5.602  68.768  -0.637  1.00  0.00     0.055 A 
ATOM     25  C   UNL     1      -7.539  67.179   0.333  1.00  0.00     0.114 A 
ATOM     26  C   UNL     1      -6.758  68.525  -1.383  1.00  0.00     0.129 A 
ATOM     27  N   UNL     1      -7.728  67.737  -0.882  1.00  0.00    -0.239 NA
BRANCH  26  28
ATOM     28  N   UNL     1      -6.937  69.136  -2.608  1.00  0.00    -0.345 N 
ATOM     29  C   UNL     1      -5.861  69.106  -3.606  1.00  0.00     0.179 C 
ATOM     30  C   UNL     1      -7.999  70.127  -2.818  1.00  0.00     0.179 C 
ATOM     31  C   UNL     1      -5.374  70.526  -3.968  1.00  0.00     0.282 C 
ATOM     32  C   UNL     1      -7.418  71.504  -3.203  1.00  0.00     0.282 C 
ATOM     33  N   UNL     1      -6.467  71.454  -4.329  1.00  0.00    -0.343 N 
ATOM     34  H   UNL     1      -6.942  71.121  -5.169  1.00  0.00     0.346 HD
ATOM     35  H   UNL     1      -6.093  72.386  -4.517  1.00  0.00     0.346 HD
ENDBRANCH  26  28
ENDBRANCH   5  22
TORSDOF 5
ENDMDL
MODEL 6
REMARK VINA RESULT:      -9.3      1.781      2.635
REMARK SMILES Cc1nn(C)c(C)c1NS(=O)(=O)c1c(Cl)cc(-c2ccnc(N3CC[NH2+]CC3)c2)cc1Cl
REMARK SMILES IDX 16 1 30 2 14 3 31 4 17 5 13 6 15 7 32 8 10 9 11 10 12 11
REMARK SMILES IDX 9 12 8 14 2 15 3 16 6 17 4 18 1 19 7 20 5 21 18 22 19 23
REMARK SMILES IDX 29 24 20 25 22 26 21 27 23 28 24 29 28 30 25 31 27 32 26 33
REMARK H PARENT 9 13 26 34 26 35
ROOT
ATOM      1  C   UNL     1      -5.218  68.186   1.104  1.00  0.00     0.030 A 
ATOM      2  C   UNL     1      -6.787  66.914   2.364  1.00  0.00     0.030 A 
ATOM      3  C   UNL     1      -4.159  67.666   1.877  1.00  0.00     0.063 A 
ATOM      4  C   UNL     1      -5.748  66.402   3.162  1.00  0.00     0.063 A 
ATOM      5  C   UNL     1      -6.553  67.827   1.325  1.00  0.00    -0.015 A 
ATOM      6  C   UNL     1      -4.417  66.775   2.926  1.00  0.00     0.124 A 
ATOM      7  Cl  UNL     1      -2.598  68.228   1.395  1.00  0.00    -0.083 Cl
ATOM      8  Cl  UNL     1      -6.264  65.337   4.429  1.00  0.00    -0.083 Cl
ENDROOT
BRANCH   6   9
ATOM      9  S   UNL     1      -3.130  66.070   3.922  1.00  0.00     0.264 S 
ATOM     10  O   UNL     1      -1.835  66.205   3.294  1.00  0.00    -0.201 OA
ATOM     11  O   UNL     1      -3.569  64.752   4.332  1.00  0.00    -0.201 OA
BRANCH   9  12
ATOM     12  N   UNL     1      -3.144  67.041   5.325  1.00  0.00    -0.276 N 
ATOM     13  H   UNL     1      -3.595  66.724   6.140  1.00  0.00     0.180 HD
BRANCH  12  14
ATOM     14  C   UNL     1      -2.511  68.292   5.313  1.00  0.00     0.093 A 
ATOM     15  C   UNL     1      -1.139  68.530   5.579  1.00  0.00     0.084 A 
ATOM     16  N   UNL     1      -0.829  69.825   5.452  1.00  0.00    -0.176 NA
ATOM     17  C   UNL     1      -3.029  69.524   4.966  1.00  0.00     0.059 A 
ATOM     18  N   UNL     1      -1.989  70.409   5.107  1.00  0.00    -0.270 N 
ATOM     19  C   UNL     1      -0.068  67.563   5.912  1.00  0.00     0.071 C 
ATOM     20  C   UNL     1      -4.395  69.945   4.563  1.00  0.00     0.069 C 
ATOM     21  C   UNL     1      -1.990  71.842   4.915  1.00  0.00     0.174 C 
ENDBRANCH  12  14
ENDBRANCH   9  12
ENDBRANCH   6   9
BRANCH   5  22
ATOM     22  C   UNL     1      -7.666  68.379   0.514  1.00  0.00    -0.013 A 
ATOM     23  C   UNL     1      -8.961  68.523   1.009  1.00  0.00     0.029 A 
ATOM     24  C   UNL     1      -7.451  68.808  -0.807  1.00  0.00     0.055 A 
ATOM     25  C   UNL     1      -9.927  69.095   0.197  1.00  0.00     0.114 A 
ATOM     26  C   UNL     1      -8.464  69.387  -1.576  1.00  0.00     0.129 A 
ATOM     27  N   UNL     1      -9.699  69.537  -1.058  1.00  0.00    -0.239 NA
BRANCH  26  28
ATOM     28  N   UNL     1      -8.193  69.860  -2.844  1.00  0.00    -0.345 N 
ATOM     29  C   UNL     1      -7.243  70.964  -3.026  1.00  0.00     0.179 C 
ATOM     30  C   UNL     1      -9.081  69.566  -3.974  1.00  0.00     0.179 C 
ATOM     31  C   UNL     1      -7.911  72.196  -3.674  1.00  0.00     0.282 C 
ATOM     32  C   UNL     1      -9.678  70.858  -4.574  1.00  0.00     0.282 C 
ATOM     33  N   UNL     1      -8.668  71.881  -4.905  1.00  0.00    -0.343 N 
ATOM     34  H   UNL     1      -8.034  71.522  -5.620  1.00  0.00     0.346 HD
ATOM     35  H   UNL     1      -9.122  72.721  -5.266  1.00  0.00     0.346 HD
ENDBRANCH  26  28
ENDBRANCH   5  22
TORSDOF 5
ENDMDL
MODEL 7
REMARK VINA RESULT:      -9.1      5.328     10.219
REMARK SMILES Cc1nn(C)c(C)c1NS(=O)(=O)c1c(Cl)cc(-c2ccnc(N3CC[NH2+]CC3)c2)cc1Cl
REMARK SMILES IDX 16 1 30 2 14 3 31 4 17 5 13 6 15 7 32 8 10 9 11 10 12 11
REMARK SMILES IDX 9 12 8 14 2 15 3 16 6 17 4 18 1 19 7 20 5 21 18 22 19 23
REMARK SMILES IDX 29 24 20 25 22 26 21 27 23 28 24 29 28 30 25 31 27 32 26 33
REMARK H PARENT 9 13 26 34 26 35
ROOT
ATOM      1  C   UNL     1      -8.341  68.720  -0.624  1.00  0.00     0.030 A 
ATOM      2  C   UNL     1      -6.472  68.585  -2.093  1.00  0.00     0.030 A 
ATOM      3  C   UNL     1      -9.060  69.456  -1.589  1.00  0.00     0.063 A 
ATOM      4  C   UNL     1      -7.163  69.337  -3.060  1.00  0.00     0.063 A 
ATOM      5  C   UNL     1      -7.035  68.268  -0.848  1.00  0.00    -0.015 A 
ATOM      6  C   UNL     1      -8.470  69.783  -2.817  1.00  0.00     0.124 A 
ATOM      7  Cl  UNL     1     -10.664  69.873  -1.100  1.00  0.00    -0.083 Cl
ATOM      8  Cl  UNL     1      -6.261  69.668  -4.502  1.00  0.00    -0.083 Cl
ENDROOT
BRANCH   6   9
ATOM      9  S   UNL     1      -9.327  70.687  -4.080  1.00  0.00     0.264 S 
ATOM     10  O   UNL     1      -8.925  70.265  -5.402  1.00  0.00    -0.201 OA
ATOM     11  O   UNL     1      -9.242  72.093  -3.742  1.00  0.00    -0.201 OA
BRANCH   9  12
ATOM     12  N   UNL     1     -10.955  70.234  -3.849  1.00  0.00    -0.276 N 
ATOM     13  H   UNL     1     -11.174  69.418  -3.342  1.00  0.00     0.180 HD
BRANCH  12  14
ATOM     14  C   UNL     1     -11.983  71.026  -4.382  1.00  0.00     0.093 A 
ATOM     15  C   UNL     1     -12.781  71.947  -3.658  1.00  0.00     0.084 A 
ATOM     16  N   UNL     1     -13.649  72.580  -4.454  1.00  0.00    -0.176 NA
ATOM     17  C   UNL     1     -12.381  71.160  -5.697  1.00  0.00     0.059 A 
ATOM     18  N   UNL     1     -13.409  72.071  -5.675  1.00  0.00    -0.270 N 
ATOM     19  C   UNL     1     -12.732  72.301  -2.221  1.00  0.00     0.071 C 
ATOM     20  C   UNL     1     -11.925  70.492  -6.943  1.00  0.00     0.069 C 
ATOM     21  C   UNL     1     -14.219  72.545  -6.773  1.00  0.00     0.174 C 
ENDBRANCH  12  14
ENDBRANCH   9  12
ENDBRANCH   6   9
BRANCH   5  22
ATOM     22  C   UNL     1      -6.279  67.499   0.171  1.00  0.00    -0.013 A 
ATOM     23  C   UNL     1      -6.494  66.141   0.404  1.00  0.00     0.029 A 
ATOM     24  C   UNL     1      -5.280  68.115   0.944  1.00  0.00     0.055 A 
ATOM     25  C   UNL     1      -5.707  65.491   1.341  1.00  0.00     0.114 A 
ATOM     26  C   UNL     1      -4.511  67.404   1.869  1.00  0.00     0.129 A 
ATOM     27  N   UNL     1      -4.724  66.087   2.051  1.00  0.00    -0.239 NA
BRANCH  26  28
ATOM     28  N   UNL     1      -3.492  68.033   2.557  1.00  0.00    -0.345 N 
ATOM     29  C   UNL     1      -2.189  67.372   2.701  1.00  0.00     0.179 C 
ATOM     30  C   UNL     1      -3.761  69.154   3.463  1.00  0.00     0.179 C 
ATOM     31  C   UNL     1      -1.833  67.121   4.182  1.00  0.00     0.282 C 
ATOM     32  C   UNL     1      -3.347  68.822   4.913  1.00  0.00     0.282 C 
ATOM     33  N   UNL     1      -1.965  68.321   5.036  1.00  0.00    -0.343 N 
ATOM     34  H   UNL     1      -1.309  69.039   4.728  1.00  0.00     0.346 HD
ATOM     35  H   UNL     1      -1.759  68.088   6.008  1.00  0.00     0.346 HD
ENDBRANCH  26  28
ENDBRANCH   5  22
TORSDOF 5
ENDMDL
MODEL 8
REMARK VINA RESULT:      -9.1      2.543      4.351
REMARK SMILES Cc1nn(C)c(C)c1NS(=O)(=O)c1c(Cl)cc(-c2ccnc(N3CC[NH2+]CC3)c2)cc1Cl
REMARK SMILES IDX 16 1 30 2 14 3 31 4 17 5 13 6 15 7 32 8 10 9 11 10 12 11
REMARK SMILES IDX 9 12 8 14 2 15 3 16 6 17 4 18 1 19 7 20 5 21 18 22 19 23
REMARK SMILES IDX 29 24 20 25 22 26 21 27 23 28 24 29 28 30 25 31 27 32 26 33
REMARK H PARENT 9 13 26 34 26 35
ROOT
ATOM      1  C   UNL     1      -6.344  69.008   1.934  1.00  0.00     0.030 A 
ATOM      2  C   UNL     1      -6.197  66.961   0.729  1.00  0.00     0.030 A 
ATOM      3  C   UNL     1      -5.721  68.409   3.049  1.00  0.00     0.063 A 
ATOM      4  C   UNL     1      -5.596  66.338   1.837  1.00  0.00     0.063 A 
ATOM      5  C   UNL     1      -6.598  68.304   0.751  1.00  0.00    -0.015 A 
ATOM      6  C   UNL     1      -5.351  67.059   3.015  1.00  0.00     0.124 A 
ATOM      7  Cl  UNL     1      -5.482  69.485   4.380  1.00  0.00    -0.083 Cl
ATOM      8  Cl  UNL     1      -5.236  64.657   1.618  1.00  0.00    -0.083 Cl
ENDROOT
BRANCH   6   9
ATOM      9  S   UNL     1      -4.547  66.252   4.375  1.00  0.00     0.264 S 
ATOM     10  O   UNL     1      -5.132  64.960   4.648  1.00  0.00    -0.201 OA
ATOM     11  O   UNL     1      -4.446  67.213   5.453  1.00  0.00    -0.201 OA
BRANCH   9  12
ATOM     12  N   UNL     1      -2.960  66.005   3.799  1.00  0.00    -0.276 N 
ATOM     13  H   UNL     1      -2.704  65.136   3.414  1.00  0.00     0.180 HD
BRANCH  12  14
ATOM     14  C   UNL     1      -2.021  67.044   3.875  1.00  0.00     0.093 A 
ATOM     15  C   UNL     1      -1.136  67.286   4.956  1.00  0.00     0.084 A 
ATOM     16  N   UNL     1      -0.334  68.328   4.714  1.00  0.00    -0.176 NA
ATOM     17  C   UNL     1      -1.685  67.982   2.919  1.00  0.00     0.059 A 
ATOM     18  N   UNL     1      -0.700  68.749   3.491  1.00  0.00    -0.270 N 
ATOM     19  C   UNL     1      -0.975  66.532   6.221  1.00  0.00     0.071 C 
ATOM     20  C   UNL     1      -2.224  68.247   1.560  1.00  0.00     0.069 C 
ATOM     21  C   UNL     1      -0.021  69.902   2.945  1.00  0.00     0.174 C 
ENDBRANCH  12  14
ENDBRANCH   9  12
ENDBRANCH   6   9
BRANCH   5  22
ATOM     22  C   UNL     1      -7.258  68.935  -0.419  1.00  0.00    -0.013 A 
ATOM     23  C   UNL     1      -6.553  69.364  -1.542  1.00  0.00     0.029 A 
ATOM     24  C   UNL     1      -8.652  69.112  -0.451  1.00  0.00     0.055 A 
ATOM     25  C   UNL     1      -7.257  69.897  -2.610  1.00  0.00     0.114 A 
ATOM     26  C   UNL     1      -9.309  69.648  -1.562  1.00  0.00     0.129 A 
ATOM     27  N   UNL     1      -8.601  70.027  -2.644  1.00  0.00    -0.239 NA
BRANCH  26  28
ATOM     28  N   UNL     1     -10.686  69.738  -1.580  1.00  0.00    -0.345 N 
ATOM     29  C   UNL     1     -11.359  70.462  -2.666  1.00  0.00     0.179 C 
ATOM     30  C   UNL     1     -11.484  69.471  -0.378  1.00  0.00     0.179 C 
ATOM     31  C   UNL     1     -12.175  71.661  -2.138  1.00  0.00     0.282 C 
ATOM     32  C   UNL     1     -12.286  70.716   0.057  1.00  0.00     0.282 C 
ATOM     33  N   UNL     1     -13.089  71.314  -1.027  1.00  0.00    -0.343 N 
ATOM     34  H   UNL     1     -13.788  70.645  -1.350  1.00  0.00     0.346 HD
ATOM     35  H   UNL     1     -13.570  72.149  -0.691  1.00  0.00     0.346 HD
ENDBRANCH  26  28
ENDBRANCH   5  22
TORSDOF 5
ENDMDL
MODEL 9
REMARK VINA RESULT:      -9.1      1.995      2.493
REMARK SMILES Cc1nn(C)c(C)c1NS(=O)(=O)c1c(Cl)cc(-c2ccnc(N3CC[NH2+]CC3)c2)cc1Cl
REMARK SMILES IDX 16 1 30 2 14 3 31 4 17 5 13 6 15 7 32 8 10 9 11 10 12 11
REMARK SMILES IDX 9 12 8 14 2 15 3 16 6 17 4 18 1 19 7 20 5 21 18 22 19 23
REMARK SMILES IDX 29 24 20 25 22 26 21 27 23 28 24 29 28 30 25 31 27 32 26 33
REMARK H PARENT 9 13 26 34 26 35
ROOT
ATOM      1  C   UNL     1      -4.985  68.138   1.134  1.00  0.00     0.030 A 
ATOM      2  C   UNL     1      -6.574  66.662   2.115  1.00  0.00     0.030 A 
ATOM      3  C   UNL     1      -3.942  67.504   1.840  1.00  0.00     0.063 A 
ATOM      4  C   UNL     1      -5.552  66.031   2.847  1.00  0.00     0.063 A 
ATOM      5  C   UNL     1      -6.321  67.737   1.251  1.00  0.00    -0.015 A 
ATOM      6  C   UNL     1      -4.219  66.448   2.717  1.00  0.00     0.124 A 
ATOM      7  Cl  UNL     1      -2.375  68.151   1.506  1.00  0.00    -0.083 Cl
ATOM      8  Cl  UNL     1      -6.090  64.765   3.902  1.00  0.00    -0.083 Cl
ENDROOT
BRANCH   6   9
ATOM      9  S   UNL     1      -2.952  65.595   3.620  1.00  0.00     0.264 S 
ATOM     10  O   UNL     1      -1.635  66.086   3.282  1.00  0.00    -0.201 OA
ATOM     11  O   UNL     1      -3.216  64.177   3.506  1.00  0.00    -0.201 OA
BRANCH   9  12
ATOM     12  N   UNL     1      -3.276  66.017   5.241  1.00  0.00    -0.276 N 
ATOM     13  H   UNL     1      -3.992  65.558   5.737  1.00  0.00     0.180 HD
BRANCH  12  14
ATOM     14  C   UNL     1      -2.519  67.018   5.866  1.00  0.00     0.093 A 
ATOM     15  C   UNL     1      -2.793  68.408   5.833  1.00  0.00     0.084 A 
ATOM     16  N   UNL     1      -1.911  69.104   6.559  1.00  0.00    -0.176 NA
ATOM     17  C   UNL     1      -1.428  66.887   6.702  1.00  0.00     0.059 A 
ATOM     18  N   UNL     1      -1.081  68.168   7.052  1.00  0.00    -0.270 N 
ATOM     19  C   UNL     1      -3.904  69.129   5.169  1.00  0.00     0.071 C 
ATOM     20  C   UNL     1      -0.668  65.694   7.158  1.00  0.00     0.069 C 
ATOM     21  C   UNL     1       0.020  68.613   7.877  1.00  0.00     0.174 C 
ENDBRANCH  12  14
ENDBRANCH   9  12
ENDBRANCH   6   9
BRANCH   5  22
ATOM     22  C   UNL     1      -7.417  68.409   0.510  1.00  0.00    -0.013 A 
ATOM     23  C   UNL     1      -8.725  68.468   0.989  1.00  0.00     0.029 A 
ATOM     24  C   UNL     1      -7.173  69.044  -0.719  1.00  0.00     0.055 A 
ATOM     25  C   UNL     1      -9.675  69.160   0.254  1.00  0.00     0.114 A 
ATOM     26  C   UNL     1      -8.171  69.736  -1.411  1.00  0.00     0.129 A 
ATOM     27  N   UNL     1      -9.418  69.799  -0.908  1.00  0.00    -0.239 NA
BRANCH  26  28
ATOM     28  N   UNL     1      -7.871  70.406  -2.580  1.00  0.00    -0.345 N 
ATOM     29  C   UNL     1      -8.933  71.095  -3.323  1.00  0.00     0.179 C 
ATOM     30  C   UNL     1      -6.623  70.149  -3.308  1.00  0.00     0.179 C 
ATOM     31  C   UNL     1      -9.107  70.519  -4.744  1.00  0.00     0.282 C 
ATOM     32  C   UNL     1      -6.897  69.603  -4.726  1.00  0.00     0.282 C 
ATOM     33  N   UNL     1      -7.843  70.424  -5.506  1.00  0.00    -0.343 N 
ATOM     34  H   UNL     1      -7.454  71.357  -5.649  1.00  0.00     0.346 HD
ATOM     35  H   UNL     1      -8.010  69.999  -6.418  1.00  0.00     0.346 HD
ENDBRANCH  26  28
ENDBRANCH   5  22
TORSDOF 5
ENDMDL
