MODEL 1
REMARK VINA RESULT:   -11.432      0.000      0.000
REMARK INTER + INTRA:         -15.286
REMARK INTER:                 -14.105
REMARK INTRA:                  -1.182
REMARK UNBOUND:                -1.182
REMARK SMILES O=C([O-])[C@H]1[C@H]2CC[C@H]([C@H]3C[C@H]32)[C@@H]1Nc1nc(-c2n[nH]c3ncc(F)cc23)ncc1F
REMARK SMILES IDX 13 1 14 3 16 4 27 5 15 6 28 7 29 8 30 9 17 10 23 11 25 12
REMARK SMILES IDX 22 13 26 14 21 15 20 16 19 17 18 18 24 19 12 21 4 22 8 23
REMARK SMILES IDX 5 24 9 25 7 26 11 27 6 28 10 29 2 30 1 31 3 32
REMARK H PARENT 13 2 19 20
ROOT
ATOM      1  N   UNL     1     -39.529  -3.568  -5.397  1.00  0.00    -0.364 N 
ATOM      2  H   UNL     1     -39.896  -4.469  -5.557  1.00  0.00     0.162 HD
ENDROOT
BRANCH   1   3
ATOM      3  C   UNL     1     -39.068  -3.267  -4.128  1.00  0.00     0.166 A 
ATOM      4  C   UNL     1     -38.019  -1.686  -2.806  1.00  0.00     0.182 A 
ATOM      5  N   UNL     1     -38.102  -2.433  -1.688  1.00  0.00    -0.232 NA
ATOM      6  N   UNL     1     -38.485  -2.061  -4.023  1.00  0.00    -0.206 NA
ATOM      7  C   UNL     1     -38.697  -3.628  -1.825  1.00  0.00     0.156 A 
ATOM      8  C   UNL     1     -39.197  -4.092  -3.020  1.00  0.00     0.183 A 
ATOM      9  F   UNL     1     -39.796  -5.287  -3.066  1.00  0.00    -0.201 F 
BRANCH   4  10
ATOM     10  C   UNL     1     -37.266  -0.415  -2.736  1.00  0.00     0.139 A 
ATOM     11  C   UNL     1     -37.273   1.948  -5.712  1.00  0.00     0.142 A 
ATOM     12  C   UNL     1     -37.745   0.840  -5.017  1.00  0.00     0.055 A 
ATOM     13  C   UNL     1     -36.298   2.757  -5.144  1.00  0.00     0.152 A 
ATOM     14  C   UNL     1     -37.184   0.595  -3.753  1.00  0.00     0.053 A 
ATOM     15  N   UNL     1     -35.754   2.585  -3.913  1.00  0.00    -0.234 NA
ATOM     16  C   UNL     1     -36.242   1.497  -3.287  1.00  0.00     0.156 A 
ATOM     17  N   UNL     1     -35.887   1.057  -2.047  1.00  0.00    -0.260 N 
ATOM     18  N   UNL     1     -36.485  -0.087  -1.679  1.00  0.00    -0.170 NA
ATOM     19  F   UNL     1     -37.753   2.225  -6.936  1.00  0.00    -0.205 F 
ATOM     20  H   UNL     1     -35.247   1.537  -1.473  1.00  0.00     0.192 HD
ENDBRANCH   4  10
ENDBRANCH   1   3
BRANCH   1  21
ATOM     21  C   UNL     1     -39.500  -2.620  -6.521  1.00  0.00     0.093 C 
ATOM     22  C   UNL     1     -40.804  -2.619  -7.366  1.00  0.00     0.061 C 
ATOM     23  C   UNL     1     -38.270  -2.951  -7.449  1.00  0.00     0.015 C 
ATOM     24  C   UNL     1     -40.427  -2.687  -8.866  1.00  0.00     0.003 C 
ATOM     25  C   UNL     1     -38.471  -4.135  -8.396  1.00  0.00    -0.002 C 
ATOM     26  C   UNL     1     -38.097  -1.740  -8.392  1.00  0.00     0.006 C 
ATOM     27  C   UNL     1     -39.747  -4.007  -9.188  1.00  0.00    -0.004 C 
ATOM     28  C   UNL     1     -39.411  -1.540  -9.179  1.00  0.00     0.005 C 
ATOM     29  C   UNL     1     -39.521  -5.198  -8.277  1.00  0.00     0.008 C 
BRANCH  22  30
ATOM     30  C   UNL     1     -41.651  -1.371  -7.196  1.00  0.00     0.047 C 
ATOM     31  O   UNL     1     -42.714  -1.106  -7.729  1.00  0.00    -0.550 OA
ATOM     32  O   UNL     1     -41.157  -0.563  -6.235  1.00  0.00    -0.550 OA
ENDBRANCH  22  30
ENDBRANCH   1  21
TORSDOF 4
ENDMDL
MODEL 2
REMARK VINA RESULT:    -9.081      1.724      2.381
REMARK INTER + INTRA:         -12.387
REMARK INTER:                 -12.009
REMARK INTRA:                  -0.378
REMARK UNBOUND:                -1.182
REMARK SMILES O=C([O-])[C@H]1[C@H]2CC[C@H]([C@H]3C[C@H]32)[C@@H]1Nc1nc(-c2n[nH]c3ncc(F)cc23)ncc1F
REMARK SMILES IDX 13 1 14 3 16 4 27 5 15 6 28 7 29 8 30 9 17 10 23 11 25 12
REMARK SMILES IDX 22 13 26 14 21 15 20 16 19 17 18 18 24 19 12 21 4 22 8 23
REMARK SMILES IDX 5 24 9 25 7 26 11 27 6 28 10 29 2 30 1 31 3 32
REMARK H PARENT 13 2 19 20
ROOT
ATOM      1  N   UNL     1     -40.852  -2.607  -5.774  1.00  0.00    -0.364 N 
ATOM      2  H   UNL     1     -41.631  -2.010  -5.686  1.00  0.00     0.162 HD
ENDROOT
BRANCH   1   3
ATOM      3  C   UNL     1     -40.042  -2.789  -4.668  1.00  0.00     0.166 A 
ATOM      4  C   UNL     1     -38.508  -1.804  -3.245  1.00  0.00     0.182 A 
ATOM      5  N   UNL     1     -38.378  -2.903  -2.477  1.00  0.00    -0.232 NA
ATOM      6  N   UNL     1     -39.318  -1.709  -4.328  1.00  0.00    -0.206 NA
ATOM      7  C   UNL     1     -39.120  -3.962  -2.838  1.00  0.00     0.156 A 
ATOM      8  C   UNL     1     -39.967  -3.957  -3.922  1.00  0.00     0.183 A 
ATOM      9  F   UNL     1     -40.689  -5.048  -4.201  1.00  0.00    -0.201 F 
BRANCH   4  10
ATOM     10  C   UNL     1     -37.624  -0.653  -2.962  1.00  0.00     0.139 A 
ATOM     11  C   UNL     1     -37.165   2.060  -5.584  1.00  0.00     0.142 A 
ATOM     12  C   UNL     1     -37.804   0.936  -5.072  1.00  0.00     0.055 A 
ATOM     13  C   UNL     1     -36.145   2.665  -4.860  1.00  0.00     0.152 A 
ATOM     14  C   UNL     1     -37.360   0.463  -3.826  1.00  0.00     0.053 A 
ATOM     15  N   UNL     1     -35.708   2.270  -3.637  1.00  0.00    -0.234 NA
ATOM     16  C   UNL     1     -36.356   1.178  -3.192  1.00  0.00     0.156 A 
ATOM     17  N   UNL     1     -36.137   0.541  -2.008  1.00  0.00    -0.260 N 
ATOM     18  N   UNL     1     -36.884  -0.562  -1.831  1.00  0.00    -0.170 NA
ATOM     19  F   UNL     1     -37.526   2.549  -6.781  1.00  0.00    -0.205 F 
ATOM     20  H   UNL     1     -35.488   0.862  -1.340  1.00  0.00     0.192 HD
ENDBRANCH   4  10
ENDBRANCH   1   3
BRANCH   1  21
ATOM     21  C   UNL     1     -40.617  -3.256  -7.073  1.00  0.00     0.093 C 
ATOM     22  C   UNL     1     -39.444  -4.274  -7.054  1.00  0.00     0.061 C 
ATOM     23  C   UNL     1     -40.341  -2.153  -8.163  1.00  0.00     0.015 C 
ATOM     24  C   UNL     1     -38.534  -4.010  -8.278  1.00  0.00     0.003 C 
ATOM     25  C   UNL     1     -38.929  -1.567  -8.151  1.00  0.00    -0.002 C 
ATOM     26  C   UNL     1     -40.444  -2.859  -9.533  1.00  0.00     0.006 C 
ATOM     27  C   UNL     1     -37.876  -2.646  -8.172  1.00  0.00    -0.004 C 
ATOM     28  C   UNL     1     -39.418  -4.012  -9.569  1.00  0.00     0.005 C 
ATOM     29  C   UNL     1     -37.942  -1.654  -7.027  1.00  0.00     0.008 C 
BRANCH  22  30
ATOM     30  C   UNL     1     -39.881  -5.725  -7.153  1.00  0.00     0.047 C 
ATOM     31  O   UNL     1     -39.180  -6.721  -7.177  1.00  0.00    -0.550 OA
ATOM     32  O   UNL     1     -41.223  -5.844  -7.083  1.00  0.00    -0.550 OA
ENDBRANCH  22  30
ENDBRANCH   1  21
TORSDOF 4
ENDMDL
MODEL 3
REMARK VINA RESULT:    -8.734      3.431      4.832
REMARK INTER + INTRA:         -11.958
REMARK INTER:                 -10.967
REMARK INTRA:                  -0.991
REMARK UNBOUND:                -1.182
REMARK SMILES O=C([O-])[C@H]1[C@H]2CC[C@H]([C@H]3C[C@H]32)[C@@H]1Nc1nc(-c2n[nH]c3ncc(F)cc23)ncc1F
REMARK SMILES IDX 13 1 14 3 16 4 27 5 15 6 28 7 29 8 30 9 17 10 23 11 25 12
REMARK SMILES IDX 22 13 26 14 21 15 20 16 19 17 18 18 24 19 12 21 4 22 8 23
REMARK SMILES IDX 5 24 9 25 7 26 11 27 6 28 10 29 2 30 1 31 3 32
REMARK H PARENT 13 2 19 20
ROOT
ATOM      1  N   UNL     1     -40.663  -3.278  -5.975  1.00  0.00    -0.364 N 
ATOM      2  H   UNL     1     -40.927  -4.098  -6.454  1.00  0.00     0.162 HD
ENDROOT
BRANCH   1   3
ATOM      3  C   UNL     1     -41.336  -2.957  -4.811  1.00  0.00     0.166 A 
ATOM      4  C   UNL     1     -41.166  -2.702  -2.518  1.00  0.00     0.182 A 
ATOM      5  N   UNL     1     -42.451  -2.326  -2.373  1.00  0.00    -0.232 NA
ATOM      6  N   UNL     1     -40.581  -3.017  -3.700  1.00  0.00    -0.206 NA
ATOM      7  C   UNL     1     -43.176  -2.267  -3.502  1.00  0.00     0.156 A 
ATOM      8  C   UNL     1     -42.667  -2.571  -4.743  1.00  0.00     0.183 A 
ATOM      9  F   UNL     1     -43.452  -2.466  -5.822  1.00  0.00    -0.201 F 
BRANCH   4  10
ATOM     10  C   UNL     1     -40.359  -2.899  -1.295  1.00  0.00     0.139 A 
ATOM     11  C   UNL     1     -41.077  -0.804   1.795  1.00  0.00     0.142 A 
ATOM     12  C   UNL     1     -41.392  -1.276   0.525  1.00  0.00     0.055 A 
ATOM     13  C   UNL     1     -39.941  -1.270   2.443  1.00  0.00     0.152 A 
ATOM     14  C   UNL     1     -40.513  -2.214  -0.042  1.00  0.00     0.053 A 
ATOM     15  N   UNL     1     -39.083  -2.203   1.955  1.00  0.00    -0.234 NA
ATOM     16  C   UNL     1     -39.432  -2.622   0.724  1.00  0.00     0.156 A 
ATOM     17  N   UNL     1     -38.768  -3.542  -0.030  1.00  0.00    -0.260 N 
ATOM     18  N   UNL     1     -39.298  -3.739  -1.248  1.00  0.00    -0.170 NA
ATOM     19  F   UNL     1     -41.864   0.110   2.383  1.00  0.00    -0.205 F 
ATOM     20  H   UNL     1     -37.969  -4.019   0.292  1.00  0.00     0.192 HD
ENDBRANCH   4  10
ENDBRANCH   1   3
BRANCH   1  21
ATOM     21  C   UNL     1     -39.575  -2.465  -6.539  1.00  0.00     0.093 C 
ATOM     22  C   UNL     1     -40.070  -1.186  -7.268  1.00  0.00     0.061 C 
ATOM     23  C   UNL     1     -38.728  -3.346  -7.534  1.00  0.00     0.015 C 
ATOM     24  C   UNL     1     -39.355  -1.083  -8.637  1.00  0.00     0.003 C 
ATOM     25  C   UNL     1     -39.353  -3.546  -8.916  1.00  0.00    -0.002 C 
ATOM     26  C   UNL     1     -37.430  -2.558  -7.818  1.00  0.00     0.006 C 
ATOM     27  C   UNL     1     -39.760  -2.235  -9.541  1.00  0.00    -0.004 C 
ATOM     28  C   UNL     1     -37.811  -1.181  -8.405  1.00  0.00     0.005 C 
ATOM     29  C   UNL     1     -40.788  -3.319  -9.282  1.00  0.00     0.008 C 
BRANCH  22  30
ATOM     30  C   UNL     1     -39.764   0.106  -6.531  1.00  0.00     0.047 C 
ATOM     31  O   UNL     1     -39.798   1.244  -6.962  1.00  0.00    -0.550 OA
ATOM     32  O   UNL     1     -39.553  -0.112  -5.216  1.00  0.00    -0.550 OA
ENDBRANCH  22  30
ENDBRANCH   1  21
TORSDOF 4
ENDMDL
MODEL 4
REMARK VINA RESULT:    -8.590      3.230      5.201
REMARK INTER + INTRA:         -11.781
REMARK INTER:                 -11.003
REMARK INTRA:                  -0.778
REMARK UNBOUND:                -1.182
REMARK SMILES O=C([O-])[C@H]1[C@H]2CC[C@H]([C@H]3C[C@H]32)[C@@H]1Nc1nc(-c2n[nH]c3ncc(F)cc23)ncc1F
REMARK SMILES IDX 13 1 14 3 16 4 27 5 15 6 28 7 29 8 30 9 17 10 23 11 25 12
REMARK SMILES IDX 22 13 26 14 21 15 20 16 19 17 18 18 24 19 12 21 4 22 8 23
REMARK SMILES IDX 5 24 9 25 7 26 11 27 6 28 10 29 2 30 1 31 3 32
REMARK H PARENT 13 2 19 20
ROOT
ATOM      1  N   UNL     1     -39.578  -3.100  -5.193  1.00  0.00    -0.364 N 
ATOM      2  H   UNL     1     -39.930  -4.005  -5.355  1.00  0.00     0.162 HD
ENDROOT
BRANCH   1   3
ATOM      3  C   UNL     1     -39.249  -2.748  -3.897  1.00  0.00     0.166 A 
ATOM      4  C   UNL     1     -39.834  -2.924  -1.666  1.00  0.00     0.182 A 
ATOM      5  N   UNL     1     -38.780  -2.203  -1.239  1.00  0.00    -0.232 NA
ATOM      6  N   UNL     1     -40.096  -3.215  -2.964  1.00  0.00    -0.206 NA
ATOM      7  C   UNL     1     -37.948  -1.758  -2.194  1.00  0.00     0.156 A 
ATOM      8  C   UNL     1     -38.136  -2.003  -3.534  1.00  0.00     0.183 A 
ATOM      9  F   UNL     1     -37.247  -1.541  -4.421  1.00  0.00    -0.201 F 
BRANCH   4  10
ATOM     10  C   UNL     1     -40.844  -3.333  -0.667  1.00  0.00     0.139 A 
ATOM     11  C   UNL     1     -41.999  -0.856   1.974  1.00  0.00     0.142 A 
ATOM     12  C   UNL     1     -41.331  -1.183   0.799  1.00  0.00     0.055 A 
ATOM     13  C   UNL     1     -42.703  -1.834   2.664  1.00  0.00     0.152 A 
ATOM     14  C   UNL     1     -41.404  -2.520   0.376  1.00  0.00     0.053 A 
ATOM     15  N   UNL     1     -42.836  -3.128   2.275  1.00  0.00    -0.234 NA
ATOM     16  C   UNL     1     -42.168  -3.391   1.137  1.00  0.00     0.156 A 
ATOM     17  N   UNL     1     -42.103  -4.595   0.504  1.00  0.00    -0.260 N 
ATOM     18  N   UNL     1     -41.320  -4.599  -0.588  1.00  0.00    -0.170 NA
ATOM     19  F   UNL     1     -41.948   0.400   2.445  1.00  0.00    -0.205 F 
ATOM     20  H   UNL     1     -42.587  -5.392   0.819  1.00  0.00     0.192 HD
ENDBRANCH   4  10
ENDBRANCH   1   3
BRANCH   1  21
ATOM     21  C   UNL     1     -39.429  -2.197  -6.345  1.00  0.00     0.093 C 
ATOM     22  C   UNL     1     -40.686  -2.141  -7.256  1.00  0.00     0.061 C 
ATOM     23  C   UNL     1     -38.179  -2.639  -7.196  1.00  0.00     0.015 C 
ATOM     24  C   UNL     1     -40.239  -2.287  -8.731  1.00  0.00     0.003 C 
ATOM     25  C   UNL     1     -38.411  -3.842  -8.112  1.00  0.00    -0.002 C 
ATOM     26  C   UNL     1     -37.879  -1.477  -8.167  1.00  0.00     0.006 C 
ATOM     27  C   UNL     1     -39.635  -3.659  -8.975  1.00  0.00    -0.004 C 
ATOM     28  C   UNL     1     -39.135  -1.221  -9.028  1.00  0.00     0.005 C 
ATOM     29  C   UNL     1     -39.534  -4.829  -8.015  1.00  0.00     0.008 C 
BRANCH  22  30
ATOM     30  C   UNL     1     -41.455  -0.835  -7.172  1.00  0.00     0.047 C 
ATOM     31  O   UNL     1     -42.520  -0.555  -7.693  1.00  0.00    -0.550 OA
ATOM     32  O   UNL     1     -40.882   0.023  -6.303  1.00  0.00    -0.550 OA
ENDBRANCH  22  30
ENDBRANCH   1  21
TORSDOF 4
ENDMDL
MODEL 5
REMARK VINA RESULT:    -8.577      3.330      5.385
REMARK INTER + INTRA:         -11.765
REMARK INTER:                 -10.428
REMARK INTRA:                  -1.336
REMARK UNBOUND:                -1.182
REMARK SMILES O=C([O-])[C@H]1[C@H]2CC[C@H]([C@H]3C[C@H]32)[C@@H]1Nc1nc(-c2n[nH]c3ncc(F)cc23)ncc1F
REMARK SMILES IDX 13 1 14 3 16 4 27 5 15 6 28 7 29 8 30 9 17 10 23 11 25 12
REMARK SMILES IDX 22 13 26 14 21 15 20 16 19 17 18 18 24 19 12 21 4 22 8 23
REMARK SMILES IDX 5 24 9 25 7 26 11 27 6 28 10 29 2 30 1 31 3 32
REMARK H PARENT 13 2 19 20
ROOT
ATOM      1  N   UNL     1     -40.880  -2.562  -5.481  1.00  0.00    -0.364 N 
ATOM      2  H   UNL     1     -41.444  -2.768  -6.261  1.00  0.00     0.162 HD
ENDROOT
BRANCH   1   3
ATOM      3  C   UNL     1     -40.764  -3.519  -4.488  1.00  0.00     0.166 A 
ATOM      4  C   UNL     1     -41.344  -4.104  -2.327  1.00  0.00     0.182 A 
ATOM      5  N   UNL     1     -40.703  -5.287  -2.378  1.00  0.00    -0.232 NA
ATOM      6  N   UNL     1     -41.399  -3.209  -3.344  1.00  0.00    -0.206 NA
ATOM      7  C   UNL     1     -40.087  -5.570  -3.537  1.00  0.00     0.156 A 
ATOM      8  C   UNL     1     -40.087  -4.723  -4.620  1.00  0.00     0.183 A 
ATOM      9  F   UNL     1     -39.467  -5.091  -5.747  1.00  0.00    -0.201 F 
BRANCH   4  10
ATOM     10  C   UNL     1     -41.935  -3.692  -1.036  1.00  0.00     0.139 A 
ATOM     11  C   UNL     1     -39.915  -1.549   1.367  1.00  0.00     0.142 A 
ATOM     12  C   UNL     1     -40.134  -2.138   0.126  1.00  0.00     0.055 A 
ATOM     13  C   UNL     1     -40.857  -1.693   2.376  1.00  0.00     0.152 A 
ATOM     14  C   UNL     1     -41.323  -2.869  -0.031  1.00  0.00     0.053 A 
ATOM     15  N   UNL     1     -42.037  -2.355   2.262  1.00  0.00    -0.234 NA
ATOM     16  C   UNL     1     -42.196  -2.907   1.044  1.00  0.00     0.156 A 
ATOM     17  N   UNL     1     -43.267  -3.639   0.628  1.00  0.00    -0.260 N 
ATOM     18  N   UNL     1     -43.149  -4.123  -0.619  1.00  0.00    -0.170 NA
ATOM     19  F   UNL     1     -38.786  -0.856   1.589  1.00  0.00    -0.205 F 
ATOM     20  H   UNL     1     -44.058  -3.798   1.193  1.00  0.00     0.192 HD
ENDBRANCH   4  10
ENDBRANCH   1   3
BRANCH   1  21
ATOM     21  C   UNL     1     -40.205  -1.256  -5.436  1.00  0.00     0.093 C 
ATOM     22  C   UNL     1     -40.519  -0.354  -6.660  1.00  0.00     0.061 C 
ATOM     23  C   UNL     1     -38.648  -1.478  -5.328  1.00  0.00     0.015 C 
ATOM     24  C   UNL     1     -39.191   0.230  -7.204  1.00  0.00     0.003 C 
ATOM     25  C   UNL     1     -37.952  -1.842  -6.641  1.00  0.00    -0.002 C 
ATOM     26  C   UNL     1     -38.039  -0.111  -4.945  1.00  0.00     0.006 C 
ATOM     27  C   UNL     1     -38.302  -0.876  -7.745  1.00  0.00    -0.004 C 
ATOM     28  C   UNL     1     -38.428   0.920  -6.026  1.00  0.00     0.005 C 
ATOM     29  C   UNL     1     -38.615  -2.354  -7.884  1.00  0.00     0.008 C 
BRANCH  22  30
ATOM     30  C   UNL     1     -41.407   0.836  -6.342  1.00  0.00     0.047 C 
ATOM     31  O   UNL     1     -41.656   1.798  -7.046  1.00  0.00    -0.550 OA
ATOM     32  O   UNL     1     -42.053   0.672  -5.169  1.00  0.00    -0.550 OA
ENDBRANCH  22  30
ENDBRANCH   1  21
TORSDOF 4
ENDMDL
