REMARK  Name = saida/ligands/A1JV9_ref.pdb
REMARK  3 active torsions:
REMARK  status: ('A' for Active; 'I' for Inactive)
REMARK    1  A    between atoms: C10_6  and  _20
REMARK    2  A    between atoms: C17_10  and  N16_25
REMARK    3  A    between atoms: C18_11  and  C28_19
REMARK                            x       y       z     vdW  Elec       q    Type
REMARK                         _______ _______ _______ _____ _____    ______ ____
ROOT
ATOM      1  C10 A1J   501     -37.857  -1.605  -2.611  0.00  0.00    +0.183 A 
ATOM      2  C12 A1J   501     -38.419  -3.487  -1.563  0.00  0.00    +0.133 A 
ATOM      3  C13 A1J   501     -39.117  -3.946  -2.672  0.00  0.00    +0.192 A 
ATOM      4  C14 A1J   501     -39.156  -3.091  -3.815  0.00  0.00    +0.178 A 
ATOM      5  F31 A1J   501     -39.762  -5.103  -2.763  0.00  0.00    -0.200 F 
ATOM      6  N11 A1J   501     -37.812  -2.345  -1.480  0.00  0.00    -0.221 NA
ATOM      7  N15 A1J   501     -38.506  -1.976  -3.729  0.00  0.00    -0.206 NA
ATOM      8  N16 A1J   501     -39.808  -3.584  -4.920  0.00  0.00    -0.220 NA
ENDROOT
BRANCH   1  14
ATOM      9   C1 A1J   501     -37.296   1.938  -5.650  0.00  0.00    +0.159 A 
ATOM     10   C2 A1J   501     -37.707   0.737  -4.992  0.00  0.00    +0.036 A 
ATOM     11   C3 A1J   501     -37.148   0.639  -3.682  0.00  0.00    +0.062 A 
ATOM     12   C4 A1J   501     -36.309   1.614  -3.179  0.00  0.00    +0.185 A 
ATOM     13   C6 A1J   501     -36.466   2.889  -5.061  0.00  0.00    +0.130 A 
ATOM     14   C9 A1J   501     -37.181  -0.396  -2.592  0.00  0.00    +0.142 A 
ATOM     15  F32 A1J   501     -37.780   2.160  -6.877  0.00  0.00    -0.203 F 
ATOM     16   N5 A1J   501     -35.961   2.731  -3.863  0.00  0.00    -0.221 NA
ATOM     17   N7 A1J   501     -35.927   1.240  -1.922  0.00  0.00    -0.128 NA
ATOM     18   N8 A1J   501     -36.470   0.035  -1.589  0.00  0.00    -0.143 NA
ENDBRANCH   1  14
BRANCH   8  19
ATOM     19  C17 A1J   501     -39.866  -2.689  -6.145  0.00  0.00    +0.105 C 
ATOM     20  C18 A1J   501     -41.060  -2.960  -7.028  0.00  0.00    +0.123 C 
ATOM     21  C19 A1J   501     -40.711  -3.270  -8.531  0.00  0.00    +0.012 C 
ATOM     22  C20 A1J   501     -39.662  -4.440  -8.778  0.00  0.00    +0.001 C 
ATOM     23  C21 A1J   501     -38.437  -4.210  -7.860  0.00  0.00    +0.002 C 
ATOM     24  C22 A1J   501     -38.587  -2.900  -7.075  0.00  0.00    +0.021 C 
ATOM     25  C23 A1J   501     -38.766  -1.714  -8.049  0.00  0.00    +0.002 C 
ATOM     26  C24 A1J   501     -39.979  -2.030  -9.046  0.00  0.00    +0.001 C 
ATOM     27  C25 A1J   501     -39.309  -5.427  -7.631  0.00  0.00    +0.000 C 
BRANCH  20  28
ATOM     28  C28 A1J   501     -42.194  -1.968  -6.986  0.00  0.00    +0.366 C 
ATOM     29  O29 A1J   501     -42.064  -0.890  -6.436  0.00  0.00    -0.246 OA
ATOM     30  O30 A1J   501     -43.253  -2.325  -7.623  0.00  0.00    -0.246 OA
ENDBRANCH  20  28
ENDBRANCH   8  19
TORSDOF 3
