MODEL 1
REMARK VINA RESULT:   -10.451      0.000      0.000
REMARK INTER + INTRA:         -13.968
REMARK INTER:                 -12.940
REMARK INTRA:                  -1.029
REMARK UNBOUND:                -1.380
REMARK  Name = A1JV9
REMARK  4 active torsions:
REMARK  status: ('A' for Active; 'I' for Inactive)
REMARK    1  A    between atoms: C_6  and  C_20
REMARK    2  A    between atoms: C_10  and  N_25
REMARK    3  A    between atoms: C_11  and  C_19
REMARK    4  A    between atoms: C_19  and  O_30
REMARK                            x       y       z     vdW  Elec       q    Type
REMARK                         _______ _______ _______ _____ _____    ______ ____
ROOT
ATOM      1  C   UNL     1     -38.212  -2.085  -3.017  0.00  0.00    +0.183 A 
ATOM      2  C   UNL     1     -39.131  -4.066  -2.278  0.00  0.00    +0.155 A 
ATOM      3  C   UNL     1     -39.685  -4.269  -3.528  0.00  0.00    +0.181 A 
ATOM      4  C   UNL     1     -39.460  -3.308  -4.522  0.00  0.00    +0.158 A 
ATOM      5  F   UNL     1     -40.426  -5.368  -3.786  0.00  0.00    -0.200 F 
ATOM      6  N   UNL     1     -38.408  -2.978  -2.057  0.00  0.00    -0.231 NA
ATOM      7  N   UNL     1     -38.726  -2.242  -4.231  0.00  0.00    -0.208 NA
ATOM      8  N   UNL     1     -39.995  -3.470  -5.791  0.00  0.00    -0.323 N 
ATOM      9  H   UNL     1     -40.530  -4.253  -5.996  0.00  0.00    +0.148 HD
ENDROOT
BRANCH   1  15
ATOM     10  C   UNL     1     -37.233   1.789  -5.454  0.00  0.00    +0.142 A 
ATOM     11  C   UNL     1     -37.639   0.585  -4.908  0.00  0.00    +0.053 A 
ATOM     12  C   UNL     1     -37.198   0.265  -3.620  0.00  0.00    +0.052 A 
ATOM     13  C   UNL     1     -36.368   1.167  -2.930  0.00  0.00    +0.156 A 
ATOM     14  C   UNL     1     -36.411   2.631  -4.714  0.00  0.00    +0.151 A 
ATOM     15  C   UNL     1     -37.404  -0.879  -2.726  0.00  0.00    +0.139 A 
ATOM     16  F   UNL     1     -37.627   2.141  -6.697  0.00  0.00    -0.204 F 
ATOM     17  N   UNL     1     -36.009   2.309  -3.503  0.00  0.00    -0.233 NA
ATOM     18  N   UNL     1     -36.097   0.602  -1.712  0.00  0.00    -0.260 N 
ATOM     19  N   UNL     1     -36.741  -0.637  -1.620  0.00  0.00    -0.168 NA
ATOM     20  H   UNL     1     -35.546   0.998  -1.019  0.00  0.00    +0.191 HD
ENDBRANCH   1  15
BRANCH   8  21
ATOM     21  C   UNL     1     -39.752  -2.458  -6.822  0.00  0.00    +0.089 C 
ATOM     22  C   UNL     1     -40.961  -2.389  -7.749  0.00  0.00    +0.121 C 
ATOM     23  C   UNL     1     -40.565  -2.705  -9.194  0.00  0.00    +0.008 C 
ATOM     24  C   UNL     1     -39.947  -4.124  -9.221  0.00  0.00    -0.003 C 
ATOM     25  C   UNL     1     -38.717  -4.194  -8.277  0.00  0.00    -0.002 C 
ATOM     26  C   UNL     1     -38.484  -2.824  -7.596  0.00  0.00    +0.013 C 
ATOM     27  C   UNL     1     -38.271  -1.784  -8.701  0.00  0.00    +0.006 C 
ATOM     28  C   UNL     1     -39.480  -1.715  -9.630  0.00  0.00    +0.005 C 
ATOM     29  C   UNL     1     -40.015  -4.920  -7.917  0.00  0.00    +0.008 C 
BRANCH  22  30
ATOM     30  C   UNL     1     -41.552  -1.004  -7.691  0.00  0.00    +0.310 C 
ATOM     31  O   UNL     1     -41.086  -0.179  -6.941  0.00  0.00    -0.251 OA
BRANCH  30  32
ATOM     32  O   UNL     1     -42.597  -0.688  -8.470  0.00  0.00    -0.480 OA
ATOM     33  H   UNL     1     -42.448  -0.025  -9.158  0.00  0.00    +0.295 HD
ENDBRANCH  30  32
ENDBRANCH  22  30
ENDBRANCH   8  21
TORSDOF 4
ENDMDL
MODEL 2
REMARK VINA RESULT:    -8.461      3.282      4.748
REMARK INTER + INTRA:         -11.571
REMARK INTER:                 -10.378
REMARK INTRA:                  -1.194
REMARK UNBOUND:                -1.380
REMARK  Name = A1JV9
REMARK  4 active torsions:
REMARK  status: ('A' for Active; 'I' for Inactive)
REMARK    1  A    between atoms: C_6  and  C_20
REMARK    2  A    between atoms: C_10  and  N_25
REMARK    3  A    between atoms: C_11  and  C_19
REMARK    4  A    between atoms: C_19  and  O_30
REMARK                            x       y       z     vdW  Elec       q    Type
REMARK                         _______ _______ _______ _____ _____    ______ ____
ROOT
ATOM      1  C   UNL     1     -40.560  -4.444  -2.936  0.00  0.00    +0.183 A 
ATOM      2  C   UNL     1     -42.096  -5.942  -3.782  0.00  0.00    +0.155 A 
ATOM      3  C   UNL     1     -41.804  -5.508  -5.062  0.00  0.00    +0.181 A 
ATOM      4  C   UNL     1     -40.845  -4.501  -5.224  0.00  0.00    +0.158 A 
ATOM      5  F   UNL     1     -42.430  -6.045  -6.133  0.00  0.00    -0.200 F 
ATOM      6  N   UNL     1     -41.464  -5.397  -2.754  0.00  0.00    -0.231 NA
ATOM      7  N   UNL     1     -40.251  -4.000  -4.149  0.00  0.00    -0.208 NA
ATOM      8  N   UNL     1     -40.520  -4.036  -6.489  0.00  0.00    -0.323 N 
ATOM      9  H   UNL     1     -40.958  -4.409  -7.271  0.00  0.00    +0.148 HD
ENDROOT
BRANCH   1  15
ATOM     10  C   UNL     1     -42.073  -3.013   1.255  0.00  0.00    +0.142 A 
ATOM     11  C   UNL     1     -41.835  -3.487  -0.022  0.00  0.00    +0.053 A 
ATOM     12  C   UNL     1     -40.521  -3.457  -0.500  0.00  0.00    +0.052 A 
ATOM     13  C   UNL     1     -39.498  -2.954   0.325  0.00  0.00    +0.156 A 
ATOM     14  C   UNL     1     -41.013  -2.530   2.012  0.00  0.00    +0.151 A 
ATOM     15  C   UNL     1     -39.883  -3.857  -1.758  0.00  0.00    +0.139 A 
ATOM     16  F   UNL     1     -43.326  -3.015   1.759  0.00  0.00    -0.204 F 
ATOM     17  N   UNL     1     -39.785  -2.512   1.543  0.00  0.00    -0.233 NA
ATOM     18  N   UNL     1     -38.333  -3.046  -0.391  0.00  0.00    -0.260 N 
ATOM     19  N   UNL     1     -38.602  -3.598  -1.648  0.00  0.00    -0.168 NA
ATOM     20  H   UNL     1     -37.458  -2.773  -0.076  0.00  0.00    +0.191 HD
ENDBRANCH   1  15
BRANCH   8  21
ATOM     21  C   UNL     1     -39.515  -2.982  -6.645  0.00  0.00    +0.089 C 
ATOM     22  C   UNL     1     -40.206  -1.692  -7.075  0.00  0.00    +0.121 C 
ATOM     23  C   UNL     1     -39.670  -1.202  -8.423  0.00  0.00    +0.008 C 
ATOM     24  C   UNL     1     -39.916  -2.316  -9.468  0.00  0.00    -0.003 C 
ATOM     25  C   UNL     1     -39.213  -3.630  -9.031  0.00  0.00    -0.002 C 
ATOM     26  C   UNL     1     -38.480  -3.424  -7.684  0.00  0.00    +0.013 C 
ATOM     27  C   UNL     1     -37.464  -2.292  -7.872  0.00  0.00    +0.006 C 
ATOM     28  C   UNL     1     -38.156  -1.002  -8.301  0.00  0.00    +0.005 C 
ATOM     29  C   UNL     1     -40.739  -3.518  -9.001  0.00  0.00    +0.008 C 
BRANCH  22  30
ATOM     30  C   UNL     1     -39.965  -0.631  -6.032  0.00  0.00    +0.310 C 
ATOM     31  O   UNL     1     -40.249   0.520  -6.264  0.00  0.00    -0.251 OA
BRANCH  30  32
ATOM     32  O   UNL     1     -39.432  -0.964  -4.846  0.00  0.00    -0.480 OA
ATOM     33  H   UNL     1     -38.468  -1.005  -4.792  0.00  0.00    +0.295 HD
ENDBRANCH  30  32
ENDBRANCH  22  30
ENDBRANCH   8  21
TORSDOF 4
ENDMDL
MODEL 3
REMARK VINA RESULT:    -8.364      3.165      4.973
REMARK INTER + INTRA:         -11.455
REMARK INTER:                 -10.454
REMARK INTRA:                  -1.001
REMARK UNBOUND:                -1.380
REMARK  Name = A1JV9
REMARK  4 active torsions:
REMARK  status: ('A' for Active; 'I' for Inactive)
REMARK    1  A    between atoms: C_6  and  C_20
REMARK    2  A    between atoms: C_10  and  N_25
REMARK    3  A    between atoms: C_11  and  C_19
REMARK    4  A    between atoms: C_19  and  O_30
REMARK                            x       y       z     vdW  Elec       q    Type
REMARK                         _______ _______ _______ _____ _____    ______ ____
ROOT
ATOM      1  C   UNL     1     -41.674  -4.710  -4.570  0.00  0.00    +0.183 A 
ATOM      2  C   UNL     1     -42.304  -5.721  -6.545  0.00  0.00    +0.155 A 
ATOM      3  C   UNL     1     -41.811  -4.638  -7.249  0.00  0.00    +0.181 A 
ATOM      4  C   UNL     1     -41.239  -3.580  -6.533  0.00  0.00    +0.158 A 
ATOM      5  F   UNL     1     -41.879  -4.602  -8.598  0.00  0.00    -0.200 F 
ATOM      6  N   UNL     1     -42.221  -5.726  -5.223  0.00  0.00    -0.231 NA
ATOM      7  N   UNL     1     -41.189  -3.652  -5.209  0.00  0.00    -0.208 NA
ATOM      8  N   UNL     1     -40.730  -2.474  -7.198  0.00  0.00    -0.323 N 
ATOM      9  H   UNL     1     -40.770  -2.429  -8.166  0.00  0.00    +0.148 HD
ENDROOT
BRANCH   1  15
ATOM     10  C   UNL     1     -39.016  -2.508  -1.410  0.00  0.00    +0.142 A 
ATOM     11  C   UNL     1     -39.689  -3.045  -2.492  0.00  0.00    +0.053 A 
ATOM     12  C   UNL     1     -40.696  -3.982  -2.241  0.00  0.00    +0.052 A 
ATOM     13  C   UNL     1     -40.990  -4.341  -0.912  0.00  0.00    +0.156 A 
ATOM     14  C   UNL     1     -39.359  -2.911  -0.125  0.00  0.00    +0.151 A 
ATOM     15  C   UNL     1     -41.608  -4.753  -3.092  0.00  0.00    +0.139 A 
ATOM     16  F   UNL     1     -38.031  -1.604  -1.600  0.00  0.00    -0.204 F 
ATOM     17  N   UNL     1     -40.311  -3.793   0.088  0.00  0.00    -0.233 NA
ATOM     18  N   UNL     1     -42.003  -5.261  -0.968  0.00  0.00    -0.260 N 
ATOM     19  N   UNL     1     -42.355  -5.488  -2.302  0.00  0.00    -0.168 NA
ATOM     20  H   UNL     1     -42.415  -5.689  -0.201  0.00  0.00    +0.191 HD
ENDBRANCH   1  15
BRANCH   8  21
ATOM     21  C   UNL     1     -40.134  -1.373  -6.437  0.00  0.00    +0.089 C 
ATOM     22  C   UNL     1     -40.201  -0.097  -7.269  0.00  0.00    +0.121 C 
ATOM     23  C   UNL     1     -38.801   0.470  -7.523  0.00  0.00    +0.008 C 
ATOM     24  C   UNL     1     -37.975  -0.610  -8.262  0.00  0.00    -0.003 C 
ATOM     25  C   UNL     1     -37.907  -1.910  -7.416  0.00  0.00    -0.002 C 
ATOM     26  C   UNL     1     -38.686  -1.729  -6.090  0.00  0.00    +0.013 C 
ATOM     27  C   UNL     1     -38.061  -0.549  -5.338  0.00  0.00    +0.006 C 
ATOM     28  C   UNL     1     -38.128   0.728  -6.170  0.00  0.00    +0.005 C 
ATOM     29  C   UNL     1     -38.734  -1.863  -8.702  0.00  0.00    +0.008 C 
BRANCH  22  30
ATOM     30  C   UNL     1     -41.024   0.930  -6.534  0.00  0.00    +0.310 C 
ATOM     31  O   UNL     1     -41.745   0.589  -5.627  0.00  0.00    -0.251 OA
BRANCH  30  32
ATOM     32  O   UNL     1     -40.957   2.222  -6.889  0.00  0.00    -0.480 OA
ATOM     33  H   UNL     1     -40.110   2.670  -6.762  0.00  0.00    +0.295 HD
ENDBRANCH  30  32
ENDBRANCH  22  30
ENDBRANCH   8  21
TORSDOF 4
ENDMDL
MODEL 4
REMARK VINA RESULT:    -8.188      3.657      5.880
REMARK INTER + INTRA:         -11.242
REMARK INTER:                 -10.193
REMARK INTRA:                  -1.050
REMARK UNBOUND:                -1.380
REMARK  Name = A1JV9
REMARK  4 active torsions:
REMARK  status: ('A' for Active; 'I' for Inactive)
REMARK    1  A    between atoms: C_6  and  C_20
REMARK    2  A    between atoms: C_10  and  N_25
REMARK    3  A    between atoms: C_11  and  C_19
REMARK    4  A    between atoms: C_19  and  O_30
REMARK                            x       y       z     vdW  Elec       q    Type
REMARK                         _______ _______ _______ _____ _____    ______ ____
ROOT
ATOM      1  C   UNL     1     -41.765  -5.553  -5.761  0.00  0.00    +0.183 A 
ATOM      2  C   UNL     1     -42.140  -6.056  -7.980  0.00  0.00    +0.155 A 
ATOM      3  C   UNL     1     -41.569  -4.851  -8.343  0.00  0.00    +0.181 A 
ATOM      4  C   UNL     1     -41.095  -4.005  -7.334  0.00  0.00    +0.158 A 
ATOM      5  F   UNL     1     -41.469  -4.498  -9.644  0.00  0.00    -0.200 F 
ATOM      6  N   UNL     1     -42.222  -6.373  -6.697  0.00  0.00    -0.231 NA
ATOM      7  N   UNL     1     -41.209  -4.387  -6.068  0.00  0.00    -0.208 NA
ATOM      8  N   UNL     1     -40.512  -2.787  -7.652  0.00  0.00    -0.323 N 
ATOM      9  H   UNL     1     -40.431  -2.515  -8.580  0.00  0.00    +0.148 HD
ENDROOT
BRANCH   1  15
ATOM     10  C   UNL     1     -41.848  -3.123  -1.762  0.00  0.00    +0.142 A 
ATOM     11  C   UNL     1     -41.804  -3.647  -3.041  0.00  0.00    +0.053 A 
ATOM     12  C   UNL     1     -41.892  -5.035  -3.187  0.00  0.00    +0.052 A 
ATOM     13  C   UNL     1     -42.022  -5.842  -2.041  0.00  0.00    +0.156 A 
ATOM     14  C   UNL     1     -41.977  -3.982  -0.677  0.00  0.00    +0.151 A 
ATOM     15  C   UNL     1     -41.883  -5.943  -4.338  0.00  0.00    +0.139 A 
ATOM     16  F   UNL     1     -41.761  -1.790  -1.569  0.00  0.00    -0.204 F 
ATOM     17  N   UNL     1     -42.059  -5.285  -0.838  0.00  0.00    -0.233 NA
ATOM     18  N   UNL     1     -42.086  -7.139  -2.479  0.00  0.00    -0.260 N 
ATOM     19  N   UNL     1     -42.000  -7.165  -3.875  0.00  0.00    -0.168 NA
ATOM     20  H   UNL     1     -42.177  -7.919  -1.910  0.00  0.00    +0.191 HD
ENDBRANCH   1  15
BRANCH   8  21
ATOM     21  C   UNL     1     -40.020  -1.911  -6.586  0.00  0.00    +0.089 C 
ATOM     22  C   UNL     1     -40.279  -0.459  -6.973  0.00  0.00    +0.121 C 
ATOM     23  C   UNL     1     -38.972   0.336  -7.042  0.00  0.00    +0.008 C 
ATOM     24  C   UNL     1     -38.056  -0.343  -8.088  0.00  0.00    -0.003 C 
ATOM     25  C   UNL     1     -37.792  -1.821  -7.695  0.00  0.00    -0.002 C 
ATOM     26  C   UNL     1     -38.525  -2.166  -6.376  0.00  0.00    +0.013 C 
ATOM     27  C   UNL     1     -38.015  -1.209  -5.294  0.00  0.00    +0.006 C 
ATOM     28  C   UNL     1     -38.275   0.245  -5.681  0.00  0.00    +0.005 C 
ATOM     29  C   UNL     1     -38.676  -1.484  -8.897  0.00  0.00    +0.008 C 
BRANCH  22  30
ATOM     30  C   UNL     1     -41.187   0.172  -5.948  0.00  0.00    +0.310 C 
ATOM     31  O   UNL     1     -41.747  -0.519  -5.130  0.00  0.00    -0.251 OA
BRANCH  30  32
ATOM     32  O   UNL     1     -41.374   1.501  -5.945  0.00  0.00    -0.480 OA
ATOM     33  H   UNL     1     -41.790   1.889  -6.726  0.00  0.00    +0.295 HD
ENDBRANCH  30  32
ENDBRANCH  22  30
ENDBRANCH   8  21
TORSDOF 4
ENDMDL
MODEL 5
REMARK VINA RESULT:    -7.979      2.974      6.145
REMARK INTER + INTRA:         -10.991
REMARK INTER:                  -9.841
REMARK INTRA:                  -1.150
REMARK UNBOUND:                -1.380
REMARK  Name = A1JV9
REMARK  4 active torsions:
REMARK  status: ('A' for Active; 'I' for Inactive)
REMARK    1  A    between atoms: C_6  and  C_20
REMARK    2  A    between atoms: C_10  and  N_25
REMARK    3  A    between atoms: C_11  and  C_19
REMARK    4  A    between atoms: C_19  and  O_30
REMARK                            x       y       z     vdW  Elec       q    Type
REMARK                         _______ _______ _______ _____ _____    ______ ____
ROOT
ATOM      1  C   UNL     1     -40.095  -3.516  -2.580  0.00  0.00    +0.183 A 
ATOM      2  C   UNL     1     -38.311  -2.294  -1.778  0.00  0.00    +0.155 A 
ATOM      3  C   UNL     1     -38.051  -1.844  -3.060  0.00  0.00    +0.181 A 
ATOM      4  C   UNL     1     -38.877  -2.281  -4.102  0.00  0.00    +0.158 A 
ATOM      5  F   UNL     1     -37.023  -1.002  -3.301  0.00  0.00    -0.200 F 
ATOM      6  N   UNL     1     -39.328  -3.118  -1.575  0.00  0.00    -0.231 NA
ATOM      7  N   UNL     1     -39.879  -3.107  -3.825  0.00  0.00    -0.208 NA
ATOM      8  N   UNL     1     -38.655  -1.856  -5.402  0.00  0.00    -0.323 N 
ATOM      9  H   UNL     1     -37.922  -1.251  -5.596  0.00  0.00    +0.148 HD
ENDROOT
BRANCH   1  15
ATOM     10  C   UNL     1     -40.925  -7.973  -3.741  0.00  0.00    +0.142 A 
ATOM     11  C   UNL     1     -40.492  -6.680  -3.508  0.00  0.00    +0.053 A 
ATOM     12  C   UNL     1     -41.318  -5.836  -2.758  0.00  0.00    +0.052 A 
ATOM     13  C   UNL     1     -42.545  -6.324  -2.271  0.00  0.00    +0.156 A 
ATOM     14  C   UNL     1     -42.150  -8.385  -3.229  0.00  0.00    +0.151 A 
ATOM     15  C   UNL     1     -41.216  -4.444  -2.310  0.00  0.00    +0.139 A 
ATOM     16  F   UNL     1     -40.167  -8.825  -4.464  0.00  0.00    -0.204 F 
ATOM     17  N   UNL     1     -42.910  -7.574  -2.526  0.00  0.00    -0.233 NA
ATOM     18  N   UNL     1     -43.133  -5.295  -1.583  0.00  0.00    -0.260 N 
ATOM     19  N   UNL     1     -42.301  -4.171  -1.625  0.00  0.00    -0.168 NA
ATOM     20  H   UNL     1     -43.992  -5.339  -1.135  0.00  0.00    +0.191 HD
ENDBRANCH   1  15
BRANCH   8  21
ATOM     21  C   UNL     1     -39.527  -2.320  -6.484  0.00  0.00    +0.089 C 
ATOM     22  C   UNL     1     -38.671  -2.913  -7.597  0.00  0.00    +0.121 C 
ATOM     23  C   UNL     1     -38.885  -2.165  -8.916  0.00  0.00    +0.008 C 
ATOM     24  C   UNL     1     -38.516  -0.679  -8.688  0.00  0.00    -0.003 C 
ATOM     25  C   UNL     1     -39.387  -0.075  -7.554  0.00  0.00    -0.002 C 
ATOM     26  C   UNL     1     -40.360  -1.143  -6.998  0.00  0.00    +0.013 C 
ATOM     27  C   UNL     1     -41.231  -1.632  -8.160  0.00  0.00    +0.006 C 
ATOM     28  C   UNL     1     -40.374  -2.226  -9.274  0.00  0.00    +0.005 C 
ATOM     29  C   UNL     1     -37.896  -0.333  -7.333  0.00  0.00    +0.008 C 
BRANCH  22  30
ATOM     30  C   UNL     1     -39.038  -4.362  -7.786  0.00  0.00    +0.310 C 
ATOM     31  O   UNL     1     -39.554  -4.978  -6.883  0.00  0.00    -0.251 OA
BRANCH  30  32
ATOM     32  O   UNL     1     -38.792  -4.969  -8.958  0.00  0.00    -0.480 OA
ATOM     33  H   UNL     1     -38.138  -5.681  -8.955  0.00  0.00    +0.295 HD
ENDBRANCH  30  32
ENDBRANCH  22  30
ENDBRANCH   8  21
TORSDOF 4
ENDMDL
MODEL 6
REMARK VINA RESULT:    -7.618      2.350      3.181
REMARK INTER + INTRA:         -10.556
REMARK INTER:                  -9.714
REMARK INTRA:                  -0.842
REMARK UNBOUND:                -1.380
REMARK  Name = A1JV9
REMARK  4 active torsions:
REMARK  status: ('A' for Active; 'I' for Inactive)
REMARK    1  A    between atoms: C_6  and  C_20
REMARK    2  A    between atoms: C_10  and  N_25
REMARK    3  A    between atoms: C_11  and  C_19
REMARK    4  A    between atoms: C_19  and  O_30
REMARK                            x       y       z     vdW  Elec       q    Type
REMARK                         _______ _______ _______ _____ _____    ______ ____
ROOT
ATOM      1  C   UNL     1     -38.909  -1.822  -4.498  0.00  0.00    +0.183 A 
ATOM      2  C   UNL     1     -38.749  -3.018  -2.533  0.00  0.00    +0.155 A 
ATOM      3  C   UNL     1     -39.343  -4.103  -3.153  0.00  0.00    +0.181 A 
ATOM      4  C   UNL     1     -39.713  -3.984  -4.498  0.00  0.00    +0.158 A 
ATOM      5  F   UNL     1     -39.560  -5.251  -2.476  0.00  0.00    -0.200 F 
ATOM      6  N   UNL     1     -38.549  -1.906  -3.225  0.00  0.00    -0.231 NA
ATOM      7  N   UNL     1     -39.481  -2.840  -5.130  0.00  0.00    -0.208 NA
ATOM      8  N   UNL     1     -40.309  -5.046  -5.160  0.00  0.00    -0.323 N 
ATOM      9  H   UNL     1     -40.474  -5.879  -4.691  0.00  0.00    +0.148 HD
ENDROOT
BRANCH   1  15
ATOM     10  C   UNL     1     -36.179   1.894  -3.701  0.00  0.00    +0.142 A 
ATOM     11  C   UNL     1     -36.903   0.717  -3.750  0.00  0.00    +0.053 A 
ATOM     12  C   UNL     1     -37.766   0.522  -4.833  0.00  0.00    +0.052 A 
ATOM     13  C   UNL     1     -37.866   1.515  -5.825  0.00  0.00    +0.156 A 
ATOM     14  C   UNL     1     -36.329   2.831  -4.716  0.00  0.00    +0.151 A 
ATOM     15  C   UNL     1     -38.674  -0.558  -5.233  0.00  0.00    +0.139 A 
ATOM     16  F   UNL     1     -35.337   2.133  -2.672  0.00  0.00    -0.204 F 
ATOM     17  N   UNL     1     -37.146   2.626  -5.726  0.00  0.00    -0.233 NA
ATOM     18  N   UNL     1     -38.769   1.060  -6.749  0.00  0.00    -0.260 N 
ATOM     19  N   UNL     1     -39.239  -0.198  -6.361  0.00  0.00    -0.168 NA
ATOM     20  H   UNL     1     -39.041   1.536  -7.549  0.00  0.00    +0.191 HD
ENDBRANCH   1  15
BRANCH   8  21
ATOM     21  C   UNL     1     -40.692  -4.909  -6.568  0.00  0.00    +0.089 C 
ATOM     22  C   UNL     1     -42.177  -5.218  -6.714  0.00  0.00    +0.121 C 
ATOM     23  C   UNL     1     -42.405  -6.395  -7.666  0.00  0.00    +0.008 C 
ATOM     24  C   UNL     1     -41.656  -7.623  -7.094  0.00  0.00    -0.003 C 
ATOM     25  C   UNL     1     -40.143  -7.310  -6.945  0.00  0.00    -0.002 C 
ATOM     26  C   UNL     1     -39.845  -5.865  -7.413  0.00  0.00    +0.013 C 
ATOM     27  C   UNL     1     -40.290  -5.746  -8.874  0.00  0.00    +0.006 C 
ATOM     28  C   UNL     1     -41.777  -6.054  -9.021  0.00  0.00    +0.005 C 
ATOM     29  C   UNL     1     -41.032  -7.454  -5.708  0.00  0.00    +0.008 C 
BRANCH  22  30
ATOM     30  C   UNL     1     -42.884  -4.002  -7.255  0.00  0.00    +0.310 C 
ATOM     31  O   UNL     1     -42.295  -2.951  -7.347  0.00  0.00    -0.251 OA
BRANCH  30  32
ATOM     32  O   UNL     1     -44.169  -4.085  -7.634  0.00  0.00    -0.480 OA
ATOM     33  H   UNL     1     -44.816  -4.305  -6.950  0.00  0.00    +0.295 HD
ENDBRANCH  30  32
ENDBRANCH  22  30
ENDBRANCH   8  21
TORSDOF 4
ENDMDL
MODEL 7
REMARK VINA RESULT:    -7.599      3.283      6.358
REMARK INTER + INTRA:         -10.534
REMARK INTER:                  -9.196
REMARK INTRA:                  -1.338
REMARK UNBOUND:                -1.380
REMARK  Name = A1JV9
REMARK  4 active torsions:
REMARK  status: ('A' for Active; 'I' for Inactive)
REMARK    1  A    between atoms: C_6  and  C_20
REMARK    2  A    between atoms: C_10  and  N_25
REMARK    3  A    between atoms: C_11  and  C_19
REMARK    4  A    between atoms: C_19  and  O_30
REMARK                            x       y       z     vdW  Elec       q    Type
REMARK                         _______ _______ _______ _____ _____    ______ ____
ROOT
ATOM      1  C   UNL     1     -39.864  -4.430  -2.838  0.00  0.00    +0.183 A 
ATOM      2  C   UNL     1     -38.483  -3.022  -1.643  0.00  0.00    +0.155 A 
ATOM      3  C   UNL     1     -38.367  -2.204  -2.752  0.00  0.00    +0.181 A 
ATOM      4  C   UNL     1     -39.049  -2.564  -3.921  0.00  0.00    +0.158 A 
ATOM      5  F   UNL     1     -37.615  -1.083  -2.708  0.00  0.00    -0.200 F 
ATOM      6  N   UNL     1     -39.229  -4.113  -1.717  0.00  0.00    -0.231 NA
ATOM      7  N   UNL     1     -39.779  -3.672  -3.924  0.00  0.00    -0.208 NA
ATOM      8  N   UNL     1     -38.964  -1.773  -5.056  0.00  0.00    -0.323 N 
ATOM      9  H   UNL     1     -38.428  -0.964  -5.046  0.00  0.00    +0.148 HD
ENDROOT
BRANCH   1  15
ATOM     10  C   UNL     1     -44.314  -5.370  -1.735  0.00  0.00    +0.142 A 
ATOM     11  C   UNL     1     -43.045  -4.888  -2.000  0.00  0.00    +0.053 A 
ATOM     12  C   UNL     1     -42.090  -5.784  -2.490  0.00  0.00    +0.052 A 
ATOM     13  C   UNL     1     -42.447  -7.130  -2.696  0.00  0.00    +0.156 A 
ATOM     14  C   UNL     1     -44.595  -6.712  -1.962  0.00  0.00    +0.151 A 
ATOM     15  C   UNL     1     -40.682  -5.663  -2.880  0.00  0.00    +0.139 A 
ATOM     16  F   UNL     1     -45.269  -4.545  -1.255  0.00  0.00    -0.204 F 
ATOM     17  N   UNL     1     -43.681  -7.538  -2.424  0.00  0.00    -0.233 NA
ATOM     18  N   UNL     1     -41.331  -7.765  -3.174  0.00  0.00    -0.260 N 
ATOM     19  N   UNL     1     -40.280  -6.848  -3.274  0.00  0.00    -0.168 NA
ATOM     20  H   UNL     1     -41.278  -8.705  -3.407  0.00  0.00    +0.191 HD
ENDBRANCH   1  15
BRANCH   8  21
ATOM     21  C   UNL     1     -39.682  -2.160  -6.274  0.00  0.00    +0.089 C 
ATOM     22  C   UNL     1     -38.676  -2.626  -7.320  0.00  0.00    +0.121 C 
ATOM     23  C   UNL     1     -38.758  -1.767  -8.585  0.00  0.00    +0.008 C 
ATOM     24  C   UNL     1     -38.474  -0.299  -8.185  0.00  0.00    -0.003 C 
ATOM     25  C   UNL     1     -39.498   0.175  -7.119  0.00  0.00    -0.002 C 
ATOM     26  C   UNL     1     -40.490  -0.964  -6.781  0.00  0.00    +0.013 C 
ATOM     27  C   UNL     1     -41.196  -1.369  -8.080  0.00  0.00    +0.006 C 
ATOM     28  C   UNL     1     -40.189  -1.835  -9.128  0.00  0.00    +0.005 C 
ATOM     29  C   UNL     1     -38.035  -0.061  -6.739  0.00  0.00    +0.008 C 
BRANCH  22  30
ATOM     30  C   UNL     1     -38.964  -4.062  -7.679  0.00  0.00    +0.310 C 
ATOM     31  O   UNL     1     -38.452  -4.555  -8.656  0.00  0.00    -0.251 OA
BRANCH  30  32
ATOM     32  O   UNL     1     -39.789  -4.792  -6.913  0.00  0.00    -0.480 OA
ATOM     33  H   UNL     1     -39.851  -5.737  -7.109  0.00  0.00    +0.295 HD
ENDBRANCH  30  32
ENDBRANCH  22  30
ENDBRANCH   8  21
TORSDOF 4
ENDMDL
