MODEL 1
REMARK VINA RESULT:   -10.574      0.000      0.000
REMARK INTER + INTRA:         -13.990
REMARK INTER:                 -12.965
REMARK INTRA:                  -1.025
REMARK UNBOUND:                -1.252
REMARK  Name = A1JV9
REMARK  4 active torsions:
REMARK  status: ('A' for Active; 'I' for Inactive)
REMARK    1  A    between atoms: C_6  and  C_20
REMARK    2  A    between atoms: C_10  and  N_25
REMARK    3  A    between atoms: C_11  and  C_19
REMARK    4  A    between atoms: C_19  and  O_30
REMARK                            x       y       z     vdW  Elec       q    Type
REMARK                         _______ _______ _______ _____ _____    ______ ____
ROOT
ATOM      1  C   UNL     1     -38.214  -2.081  -2.993  0.00  0.00    +0.183 A 
ATOM      2  C   UNL     1     -39.135  -4.057  -2.240  0.00  0.00    +0.155 A 
ATOM      3  C   UNL     1     -39.695  -4.264  -3.488  0.00  0.00    +0.181 A 
ATOM      4  C   UNL     1     -39.472  -3.308  -4.486  0.00  0.00    +0.158 A 
ATOM      5  F   UNL     1     -40.439  -5.363  -3.737  0.00  0.00    -0.200 F 
ATOM      6  N   UNL     1     -38.409  -2.970  -2.028  0.00  0.00    -0.231 NA
ATOM      7  N   UNL     1     -38.734  -2.242  -4.204  0.00  0.00    -0.208 NA
ATOM      8  N   UNL     1     -40.012  -3.474  -5.752  0.00  0.00    -0.323 N 
ATOM      9  H   UNL     1     -40.550  -4.257  -5.952  0.00  0.00    +0.148 HD
ENDROOT
BRANCH   1  15
ATOM     10  C   UNL     1     -37.248   1.785  -5.446  0.00  0.00    +0.142 A 
ATOM     11  C   UNL     1     -37.652   0.583  -4.894  0.00  0.00    +0.053 A 
ATOM     12  C   UNL     1     -37.202   0.265  -3.609  0.00  0.00    +0.052 A 
ATOM     13  C   UNL     1     -36.365   1.169  -2.928  0.00  0.00    +0.156 A 
ATOM     14  C   UNL     1     -36.420   2.628  -4.714  0.00  0.00    +0.151 A 
ATOM     15  C   UNL     1     -37.402  -0.876  -2.711  0.00  0.00    +0.139 A 
ATOM     16  F   UNL     1     -37.652   2.135  -6.686  0.00  0.00    -0.204 F 
ATOM     17  N   UNL     1     -36.009   2.309  -3.506  0.00  0.00    -0.233 NA
ATOM     18  N   UNL     1     -36.086   0.605  -1.710  0.00  0.00    -0.260 N 
ATOM     19  N   UNL     1     -36.730  -0.632  -1.611  0.00  0.00    -0.168 NA
ATOM     20  H   UNL     1     -35.529   1.003  -1.023  0.00  0.00    +0.191 HD
ENDBRANCH   1  15
BRANCH   8  21
ATOM     21  C   UNL     1     -39.772  -2.467  -6.789  0.00  0.00    +0.089 C 
ATOM     22  C   UNL     1     -40.979  -2.410  -7.720  0.00  0.00    +0.121 C 
ATOM     23  C   UNL     1     -40.579  -2.733  -9.162  0.00  0.00    +0.008 C 
ATOM     24  C   UNL     1     -39.955  -4.150  -9.179  0.00  0.00    -0.003 C 
ATOM     25  C   UNL     1     -38.726  -4.208  -8.231  0.00  0.00    -0.002 C 
ATOM     26  C   UNL     1     -38.500  -2.833  -7.559  0.00  0.00    +0.013 C 
ATOM     27  C   UNL     1     -38.289  -1.798  -8.670  0.00  0.00    +0.006 C 
ATOM     28  C   UNL     1     -39.497  -1.741  -9.601  0.00  0.00    +0.005 C 
ATOM     29  C   UNL     1     -40.022  -4.938  -7.870  0.00  0.00    +0.008 C 
BRANCH  22  30
ATOM     30  C   UNL     1     -41.576  -1.027  -7.671  0.00  0.00    +0.310 C 
ATOM     31  O   UNL     1     -41.100  -0.189  -6.943  0.00  0.00    -0.251 OA
BRANCH  30  32
ATOM     32  O   UNL     1     -42.638  -0.728  -8.435  0.00  0.00    -0.480 OA
ATOM     33  H   UNL     1     -43.472  -1.170  -8.222  0.00  0.00    +0.295 HD
ENDBRANCH  30  32
ENDBRANCH  22  30
ENDBRANCH   8  21
TORSDOF 4
ENDMDL
MODEL 2
REMARK VINA RESULT:    -8.559      3.264      4.761
REMARK INTER + INTRA:         -11.562
REMARK INTER:                 -10.389
REMARK INTRA:                  -1.173
REMARK UNBOUND:                -1.252
REMARK  Name = A1JV9
REMARK  4 active torsions:
REMARK  status: ('A' for Active; 'I' for Inactive)
REMARK    1  A    between atoms: C_6  and  C_20
REMARK    2  A    between atoms: C_10  and  N_25
REMARK    3  A    between atoms: C_11  and  C_19
REMARK    4  A    between atoms: C_19  and  O_30
REMARK                            x       y       z     vdW  Elec       q    Type
REMARK                         _______ _______ _______ _____ _____    ______ ____
ROOT
ATOM      1  C   UNL     1     -40.631  -4.359  -2.906  0.00  0.00    +0.183 A 
ATOM      2  C   UNL     1     -42.250  -5.765  -3.754  0.00  0.00    +0.155 A 
ATOM      3  C   UNL     1     -41.942  -5.338  -5.033  0.00  0.00    +0.181 A 
ATOM      4  C   UNL     1     -40.931  -4.383  -5.193  0.00  0.00    +0.158 A 
ATOM      5  F   UNL     1     -42.601  -5.832  -6.104  0.00  0.00    -0.200 F 
ATOM      6  N   UNL     1     -41.584  -5.263  -2.725  0.00  0.00    -0.231 NA
ATOM      7  N   UNL     1     -40.305  -3.923  -4.117  0.00  0.00    -0.208 NA
ATOM      8  N   UNL     1     -40.587  -3.927  -6.456  0.00  0.00    -0.323 N 
ATOM      9  H   UNL     1     -41.048  -4.269  -7.238  0.00  0.00    +0.148 HD
ENDROOT
BRANCH   1  15
ATOM     10  C   UNL     1     -42.036  -2.934   1.324  0.00  0.00    +0.142 A 
ATOM     11  C   UNL     1     -41.832  -3.397   0.038  0.00  0.00    +0.053 A 
ATOM     12  C   UNL     1     -40.523  -3.413  -0.455  0.00  0.00    +0.052 A 
ATOM     13  C   UNL     1     -39.471  -2.965   0.365  0.00  0.00    +0.156 A 
ATOM     14  C   UNL     1     -40.948  -2.506   2.076  0.00  0.00    +0.151 A 
ATOM     15  C   UNL     1     -39.917  -3.818  -1.727  0.00  0.00    +0.139 A 
ATOM     16  F   UNL     1     -43.282  -2.893   1.844  0.00  0.00    -0.204 F 
ATOM     17  N   UNL     1     -39.726  -2.531   1.592  0.00  0.00    -0.233 NA
ATOM     18  N   UNL     1     -38.320  -3.093  -0.367  0.00  0.00    -0.260 N 
ATOM     19  N   UNL     1     -38.625  -3.614  -1.629  0.00  0.00    -0.168 NA
ATOM     20  H   UNL     1     -37.430  -2.860  -0.058  0.00  0.00    +0.191 HD
ENDBRANCH   1  15
BRANCH   8  21
ATOM     21  C   UNL     1     -39.527  -2.927  -6.610  0.00  0.00    +0.089 C 
ATOM     22  C   UNL     1     -40.146  -1.606  -7.053  0.00  0.00    +0.121 C 
ATOM     23  C   UNL     1     -39.575  -1.153  -8.399  0.00  0.00    +0.008 C 
ATOM     24  C   UNL     1     -39.870  -2.259  -9.440  0.00  0.00    -0.003 C 
ATOM     25  C   UNL     1     -39.240  -3.605  -8.989  0.00  0.00    -0.002 C 
ATOM     26  C   UNL     1     -38.509  -3.429  -7.637  0.00  0.00    +0.013 C 
ATOM     27  C   UNL     1     -37.434  -2.353  -7.823  0.00  0.00    +0.006 C 
ATOM     28  C   UNL     1     -38.053  -1.031  -8.266  0.00  0.00    +0.005 C 
ATOM     29  C   UNL     1     -40.758  -3.414  -8.972  0.00  0.00    +0.008 C 
BRANCH  22  30
ATOM     30  C   UNL     1     -39.859  -0.552  -6.014  0.00  0.00    +0.310 C 
ATOM     31  O   UNL     1     -40.088   0.610  -6.252  0.00  0.00    -0.251 OA
BRANCH  30  32
ATOM     32  O   UNL     1     -39.346  -0.904  -4.825  0.00  0.00    -0.480 OA
ATOM     33  H   UNL     1     -38.898  -0.214  -4.317  0.00  0.00    +0.295 HD
ENDBRANCH  30  32
ENDBRANCH  22  30
ENDBRANCH   8  21
TORSDOF 4
ENDMDL
MODEL 3
REMARK VINA RESULT:    -8.285      3.653      5.881
REMARK INTER + INTRA:         -11.233
REMARK INTER:                 -10.185
REMARK INTRA:                  -1.048
REMARK UNBOUND:                -1.252
REMARK  Name = A1JV9
REMARK  4 active torsions:
REMARK  status: ('A' for Active; 'I' for Inactive)
REMARK    1  A    between atoms: C_6  and  C_20
REMARK    2  A    between atoms: C_10  and  N_25
REMARK    3  A    between atoms: C_11  and  C_19
REMARK    4  A    between atoms: C_19  and  O_30
REMARK                            x       y       z     vdW  Elec       q    Type
REMARK                         _______ _______ _______ _____ _____    ______ ____
ROOT
ATOM      1  C   UNL     1     -41.764  -5.553  -5.767  0.00  0.00    +0.183 A 
ATOM      2  C   UNL     1     -42.136  -6.062  -7.985  0.00  0.00    +0.155 A 
ATOM      3  C   UNL     1     -41.565  -4.857  -8.351  0.00  0.00    +0.181 A 
ATOM      4  C   UNL     1     -41.094  -4.008  -7.342  0.00  0.00    +0.158 A 
ATOM      5  F   UNL     1     -41.464  -4.507  -9.652  0.00  0.00    -0.200 F 
ATOM      6  N   UNL     1     -42.219  -6.377  -6.701  0.00  0.00    -0.231 NA
ATOM      7  N   UNL     1     -41.210  -4.387  -6.076  0.00  0.00    -0.208 NA
ATOM      8  N   UNL     1     -40.514  -2.790  -7.662  0.00  0.00    -0.323 N 
ATOM      9  H   UNL     1     -40.432  -2.520  -8.590  0.00  0.00    +0.148 HD
ENDROOT
BRANCH   1  15
ATOM     10  C   UNL     1     -41.835  -3.117  -1.772  0.00  0.00    +0.142 A 
ATOM     11  C   UNL     1     -41.794  -3.642  -3.050  0.00  0.00    +0.053 A 
ATOM     12  C   UNL     1     -41.888  -5.030  -3.193  0.00  0.00    +0.052 A 
ATOM     13  C   UNL     1     -42.022  -5.835  -2.047  0.00  0.00    +0.156 A 
ATOM     14  C   UNL     1     -41.968  -3.973  -0.686  0.00  0.00    +0.151 A 
ATOM     15  C   UNL     1     -41.884  -5.941  -4.343  0.00  0.00    +0.139 A 
ATOM     16  F   UNL     1     -41.741  -1.783  -1.581  0.00  0.00    -0.204 F 
ATOM     17  N   UNL     1     -42.056  -5.276  -0.844  0.00  0.00    -0.233 NA
ATOM     18  N   UNL     1     -42.092  -7.133  -2.482  0.00  0.00    -0.260 N 
ATOM     19  N   UNL     1     -42.006  -7.161  -3.878  0.00  0.00    -0.168 NA
ATOM     20  H   UNL     1     -42.187  -7.911  -1.912  0.00  0.00    +0.191 HD
ENDBRANCH   1  15
BRANCH   8  21
ATOM     21  C   UNL     1     -40.025  -1.910  -6.597  0.00  0.00    +0.089 C 
ATOM     22  C   UNL     1     -40.281  -0.459  -6.991  0.00  0.00    +0.121 C 
ATOM     23  C   UNL     1     -38.973   0.334  -7.058  0.00  0.00    +0.008 C 
ATOM     24  C   UNL     1     -38.053  -0.350  -8.098  0.00  0.00    -0.003 C 
ATOM     25  C   UNL     1     -37.792  -1.827  -7.698  0.00  0.00    -0.002 C 
ATOM     26  C   UNL     1     -38.531  -2.166  -6.382  0.00  0.00    +0.013 C 
ATOM     27  C   UNL     1     -38.024  -1.205  -5.300  0.00  0.00    +0.006 C 
ATOM     28  C   UNL     1     -38.280   0.247  -5.694  0.00  0.00    +0.005 C 
ATOM     29  C   UNL     1     -38.671  -1.493  -8.905  0.00  0.00    +0.008 C 
BRANCH  22  30
ATOM     30  C   UNL     1     -41.192   0.176  -5.972  0.00  0.00    +0.310 C 
ATOM     31  O   UNL     1     -41.748  -0.510  -5.147  0.00  0.00    -0.251 OA
BRANCH  30  32
ATOM     32  O   UNL     1     -41.387   1.504  -5.981  0.00  0.00    -0.480 OA
ATOM     33  H   UNL     1     -40.603   2.064  -5.904  0.00  0.00    +0.295 HD
ENDBRANCH  30  32
ENDBRANCH  22  30
ENDBRANCH   8  21
TORSDOF 4
ENDMDL
MODEL 4
REMARK VINA RESULT:    -8.071      2.978      6.146
REMARK INTER + INTRA:         -10.975
REMARK INTER:                  -9.820
REMARK INTRA:                  -1.155
REMARK UNBOUND:                -1.252
REMARK  Name = A1JV9
REMARK  4 active torsions:
REMARK  status: ('A' for Active; 'I' for Inactive)
REMARK    1  A    between atoms: C_6  and  C_20
REMARK    2  A    between atoms: C_10  and  N_25
REMARK    3  A    between atoms: C_11  and  C_19
REMARK    4  A    between atoms: C_19  and  O_30
REMARK                            x       y       z     vdW  Elec       q    Type
REMARK                         _______ _______ _______ _____ _____    ______ ____
ROOT
ATOM      1  C   UNL     1     -40.074  -3.555  -2.530  0.00  0.00    +0.183 A 
ATOM      2  C   UNL     1     -38.292  -2.330  -1.729  0.00  0.00    +0.155 A 
ATOM      3  C   UNL     1     -38.035  -1.878  -3.011  0.00  0.00    +0.181 A 
ATOM      4  C   UNL     1     -38.863  -2.315  -4.051  0.00  0.00    +0.158 A 
ATOM      5  F   UNL     1     -37.009  -1.033  -3.253  0.00  0.00    -0.200 F 
ATOM      6  N   UNL     1     -39.306  -3.157  -1.525  0.00  0.00    -0.231 NA
ATOM      7  N   UNL     1     -39.862  -3.144  -3.774  0.00  0.00    -0.208 NA
ATOM      8  N   UNL     1     -38.644  -1.887  -5.352  0.00  0.00    -0.323 N 
ATOM      9  H   UNL     1     -37.912  -1.280  -5.546  0.00  0.00    +0.148 HD
ENDROOT
BRANCH   1  15
ATOM     10  C   UNL     1     -40.977  -7.957  -3.835  0.00  0.00    +0.142 A 
ATOM     11  C   UNL     1     -40.527  -6.678  -3.566  0.00  0.00    +0.053 A 
ATOM     12  C   UNL     1     -41.321  -5.858  -2.757  0.00  0.00    +0.052 A 
ATOM     13  C   UNL     1     -42.534  -6.357  -2.249  0.00  0.00    +0.156 A 
ATOM     14  C   UNL     1     -42.187  -8.382  -3.299  0.00  0.00    +0.151 A 
ATOM     15  C   UNL     1     -41.193  -4.485  -2.258  0.00  0.00    +0.139 A 
ATOM     16  F   UNL     1     -40.250  -8.785  -4.616  0.00  0.00    -0.204 F 
ATOM     17  N   UNL     1     -42.917  -7.594  -2.540  0.00  0.00    -0.233 NA
ATOM     18  N   UNL     1     -43.091  -5.352  -1.501  0.00  0.00    -0.260 N 
ATOM     19  N   UNL     1     -42.253  -4.233  -1.527  0.00  0.00    -0.168 NA
ATOM     20  H   UNL     1     -43.935  -5.408  -1.026  0.00  0.00    +0.191 HD
ENDBRANCH   1  15
BRANCH   8  21
ATOM     21  C   UNL     1     -39.518  -2.351  -6.432  0.00  0.00    +0.089 C 
ATOM     22  C   UNL     1     -38.662  -2.929  -7.554  0.00  0.00    +0.121 C 
ATOM     23  C   UNL     1     -38.889  -2.174  -8.867  0.00  0.00    +0.008 C 
ATOM     24  C   UNL     1     -38.531  -0.687  -8.630  0.00  0.00    -0.003 C 
ATOM     25  C   UNL     1     -39.402  -0.098  -7.488  0.00  0.00    -0.002 C 
ATOM     26  C   UNL     1     -40.363  -1.178  -6.934  0.00  0.00    +0.013 C 
ATOM     27  C   UNL     1     -41.235  -1.667  -8.095  0.00  0.00    +0.006 C 
ATOM     28  C   UNL     1     -40.378  -2.246  -9.218  0.00  0.00    +0.005 C 
ATOM     29  C   UNL     1     -37.907  -0.345  -7.276  0.00  0.00    +0.008 C 
BRANCH  22  30
ATOM     30  C   UNL     1     -39.018  -4.381  -7.751  0.00  0.00    +0.310 C 
ATOM     31  O   UNL     1     -39.516  -5.009  -6.847  0.00  0.00    -0.251 OA
BRANCH  30  32
ATOM     32  O   UNL     1     -38.781  -4.976  -8.930  0.00  0.00    -0.480 OA
ATOM     33  H   UNL     1     -38.408  -4.426  -9.633  0.00  0.00    +0.295 HD
ENDBRANCH  30  32
ENDBRANCH  22  30
ENDBRANCH   8  21
TORSDOF 4
ENDMDL
MODEL 5
REMARK VINA RESULT:    -7.862      3.310      6.371
REMARK INTER + INTRA:         -10.723
REMARK INTER:                  -9.530
REMARK INTRA:                  -1.193
REMARK UNBOUND:                -1.252
REMARK  Name = A1JV9
REMARK  4 active torsions:
REMARK  status: ('A' for Active; 'I' for Inactive)
REMARK    1  A    between atoms: C_6  and  C_20
REMARK    2  A    between atoms: C_10  and  N_25
REMARK    3  A    between atoms: C_11  and  C_19
REMARK    4  A    between atoms: C_19  and  O_30
REMARK                            x       y       z     vdW  Elec       q    Type
REMARK                         _______ _______ _______ _____ _____    ______ ____
ROOT
ATOM      1  C   UNL     1     -39.911  -4.408  -2.804  0.00  0.00    +0.183 A 
ATOM      2  C   UNL     1     -38.498  -3.000  -1.646  0.00  0.00    +0.155 A 
ATOM      3  C   UNL     1     -38.379  -2.205  -2.771  0.00  0.00    +0.181 A 
ATOM      4  C   UNL     1     -39.075  -2.575  -3.928  0.00  0.00    +0.158 A 
ATOM      5  F   UNL     1     -37.608  -1.096  -2.754  0.00  0.00    -0.200 F 
ATOM      6  N   UNL     1     -39.263  -4.080  -1.694  0.00  0.00    -0.231 NA
ATOM      7  N   UNL     1     -39.823  -3.671  -3.905  0.00  0.00    -0.208 NA
ATOM      8  N   UNL     1     -38.986  -1.808  -5.079  0.00  0.00    -0.323 N 
ATOM      9  H   UNL     1     -38.438  -1.007  -5.087  0.00  0.00    +0.148 HD
ENDROOT
BRANCH   1  15
ATOM     10  C   UNL     1     -44.260  -5.332  -1.341  0.00  0.00    +0.142 A 
ATOM     11  C   UNL     1     -43.012  -4.856  -1.702  0.00  0.00    +0.053 A 
ATOM     12  C   UNL     1     -42.119  -5.746  -2.307  0.00  0.00    +0.052 A 
ATOM     13  C   UNL     1     -42.514  -7.078  -2.528  0.00  0.00    +0.156 A 
ATOM     14  C   UNL     1     -44.581  -6.661  -1.590  0.00  0.00    +0.151 A 
ATOM     15  C   UNL     1     -40.749  -5.628  -2.817  0.00  0.00    +0.139 A 
ATOM     16  F   UNL     1     -45.156  -4.513  -0.749  0.00  0.00    -0.204 F 
ATOM     17  N   UNL     1     -43.725  -7.480  -2.161  0.00  0.00    -0.233 NA
ATOM     18  N   UNL     1     -41.455  -7.709  -3.126  0.00  0.00    -0.260 N 
ATOM     19  N   UNL     1     -40.403  -6.803  -3.287  0.00  0.00    -0.168 NA
ATOM     20  H   UNL     1     -41.438  -8.641  -3.397  0.00  0.00    +0.191 HD
ENDBRANCH   1  15
BRANCH   8  21
ATOM     21  C   UNL     1     -39.720  -2.206  -6.283  0.00  0.00    +0.089 C 
ATOM     22  C   UNL     1     -38.730  -2.709  -7.328  0.00  0.00    +0.121 C 
ATOM     23  C   UNL     1     -38.807  -1.873  -8.608  0.00  0.00    +0.008 C 
ATOM     24  C   UNL     1     -38.496  -0.402  -8.239  0.00  0.00    -0.003 C 
ATOM     25  C   UNL     1     -39.503   0.110  -7.174  0.00  0.00    -0.002 C 
ATOM     26  C   UNL     1     -40.512  -1.006  -6.808  0.00  0.00    +0.013 C 
ATOM     27  C   UNL     1     -41.234  -1.423  -8.093  0.00  0.00    +0.006 C 
ATOM     28  C   UNL     1     -40.244  -1.927  -9.139  0.00  0.00    +0.005 C 
ATOM     29  C   UNL     1     -38.042  -0.145  -6.801  0.00  0.00    +0.008 C 
BRANCH  22  30
ATOM     30  C   UNL     1     -39.044  -4.146  -7.656  0.00  0.00    +0.310 C 
ATOM     31  O   UNL     1     -39.923  -4.723  -7.061  0.00  0.00    -0.251 OA
BRANCH  30  32
ATOM     32  O   UNL     1     -38.348  -4.784  -8.609  0.00  0.00    -0.480 OA
ATOM     33  H   UNL     1     -38.303  -5.749  -8.550  0.00  0.00    +0.295 HD
ENDBRANCH  30  32
ENDBRANCH  22  30
ENDBRANCH   8  21
TORSDOF 4
ENDMDL
MODEL 6
REMARK VINA RESULT:    -7.707      3.950      7.287
REMARK INTER + INTRA:         -10.537
REMARK INTER:                  -9.754
REMARK INTRA:                  -0.782
REMARK UNBOUND:                -1.252
REMARK  Name = A1JV9
REMARK  4 active torsions:
REMARK  status: ('A' for Active; 'I' for Inactive)
REMARK    1  A    between atoms: C_6  and  C_20
REMARK    2  A    between atoms: C_10  and  N_25
REMARK    3  A    between atoms: C_11  and  C_19
REMARK    4  A    between atoms: C_19  and  O_30
REMARK                            x       y       z     vdW  Elec       q    Type
REMARK                         _______ _______ _______ _____ _____    ______ ____
ROOT
ATOM      1  C   UNL     1     -41.239  -6.212  -6.528  0.00  0.00    +0.183 A 
ATOM      2  C   UNL     1     -41.785  -6.277  -8.768  0.00  0.00    +0.155 A 
ATOM      3  C   UNL     1     -41.413  -4.950  -8.890  0.00  0.00    +0.181 A 
ATOM      4  C   UNL     1     -40.944  -4.281  -7.754  0.00  0.00    +0.158 A 
ATOM      5  F   UNL     1     -41.500  -4.315 -10.080  0.00  0.00    -0.200 F 
ATOM      6  N   UNL     1     -41.687  -6.871  -7.588  0.00  0.00    -0.231 NA
ATOM      7  N   UNL     1     -40.872  -4.939  -6.604  0.00  0.00    -0.208 NA
ATOM      8  N   UNL     1     -40.558  -2.951  -7.830  0.00  0.00    -0.323 N 
ATOM      9  H   UNL     1     -40.613  -2.477  -8.675  0.00  0.00    +0.148 HD
ENDROOT
BRANCH   1  15
ATOM     10  C   UNL     1     -39.775 -10.474  -5.267  0.00  0.00    +0.142 A 
ATOM     11  C   UNL     1     -40.155  -9.276  -5.843  0.00  0.00    +0.053 A 
ATOM     12  C   UNL     1     -40.659  -8.275  -5.006  0.00  0.00    +0.052 A 
ATOM     13  C   UNL     1     -40.760  -8.517  -3.623  0.00  0.00    +0.156 A 
ATOM     14  C   UNL     1     -39.903 -10.643  -3.893  0.00  0.00    +0.151 A 
ATOM     15  C   UNL     1     -41.153  -6.912  -5.227  0.00  0.00    +0.139 A 
ATOM     16  F   UNL     1     -39.287 -11.474  -6.033  0.00  0.00    -0.204 F 
ATOM     17  N   UNL     1     -40.380  -9.687  -3.125  0.00  0.00    -0.233 NA
ATOM     18  N   UNL     1     -41.277  -7.380  -3.061  0.00  0.00    -0.260 N 
ATOM     19  N   UNL     1     -41.503  -6.428  -4.059  0.00  0.00    -0.168 NA
ATOM     20  H   UNL     1     -41.459  -7.254  -2.116  0.00  0.00    +0.191 HD
ENDBRANCH   1  15
BRANCH   8  21
ATOM     21  C   UNL     1     -40.068  -2.262  -6.634  0.00  0.00    +0.089 C 
ATOM     22  C   UNL     1     -40.331  -0.766  -6.776  0.00  0.00    +0.121 C 
ATOM     23  C   UNL     1     -39.025   0.032  -6.712  0.00  0.00    +0.008 C 
ATOM     24  C   UNL     1     -38.106  -0.463  -7.855  0.00  0.00    -0.003 C 
ATOM     25  C   UNL     1     -37.839  -1.986  -7.711  0.00  0.00    -0.002 C 
ATOM     26  C   UNL     1     -38.573  -2.545  -6.468  0.00  0.00    +0.013 C 
ATOM     27  C   UNL     1     -38.065  -1.778  -5.242  0.00  0.00    +0.006 C 
ATOM     28  C   UNL     1     -38.328  -0.281  -5.384  0.00  0.00    +0.005 C 
ATOM     29  C   UNL     1     -38.723  -1.456  -8.842  0.00  0.00    +0.008 C 
BRANCH  22  30
ATOM     30  C   UNL     1     -41.240  -0.315  -5.662  0.00  0.00    +0.310 C 
ATOM     31  O   UNL     1     -41.768   0.770  -5.715  0.00  0.00    -0.251 OA
BRANCH  30  32
ATOM     32  O   UNL     1     -41.463  -1.119  -4.611  0.00  0.00    -0.480 OA
ATOM     33  H   UNL     1     -42.122  -1.818  -4.723  0.00  0.00    +0.295 HD
ENDBRANCH  30  32
ENDBRANCH  22  30
ENDBRANCH   8  21
TORSDOF 4
ENDMDL
MODEL 7
REMARK VINA RESULT:    -7.705      3.184      4.978
REMARK INTER + INTRA:         -10.534
REMARK INTER:                  -9.025
REMARK INTRA:                  -1.510
REMARK UNBOUND:                -1.252
REMARK  Name = A1JV9
REMARK  4 active torsions:
REMARK  status: ('A' for Active; 'I' for Inactive)
REMARK    1  A    between atoms: C_6  and  C_20
REMARK    2  A    between atoms: C_10  and  N_25
REMARK    3  A    between atoms: C_11  and  C_19
REMARK    4  A    between atoms: C_19  and  O_30
REMARK                            x       y       z     vdW  Elec       q    Type
REMARK                         _______ _______ _______ _____ _____    ______ ____
ROOT
ATOM      1  C   UNL     1     -39.374  -0.975  -7.383  0.00  0.00    +0.183 A 
ATOM      2  C   UNL     1     -39.526  -2.277  -9.280  0.00  0.00    +0.155 A 
ATOM      3  C   UNL     1     -40.597  -2.951  -8.723  0.00  0.00    +0.181 A 
ATOM      4  C   UNL     1     -41.030  -2.580  -7.445  0.00  0.00    +0.158 A 
ATOM      5  F   UNL     1     -41.214  -3.946  -9.399  0.00  0.00    -0.200 F 
ATOM      6  N   UNL     1     -38.944  -1.306  -8.592  0.00  0.00    -0.231 NA
ATOM      7  N   UNL     1     -40.400  -1.597  -6.813  0.00  0.00    -0.208 NA
ATOM      8  N   UNL     1     -42.101  -3.227  -6.848  0.00  0.00    -0.323 N 
ATOM      9  H   UNL     1     -42.557  -3.944  -7.317  0.00  0.00    +0.148 HD
ENDROOT
BRANCH   1  15
ATOM     10  C   UNL     1     -37.173  -0.784  -3.257  0.00  0.00    +0.142 A 
ATOM     11  C   UNL     1     -37.857  -1.051  -4.429  0.00  0.00    +0.053 A 
ATOM     12  C   UNL     1     -38.041  -0.003  -5.336  0.00  0.00    +0.052 A 
ATOM     13  C   UNL     1     -37.529   1.272  -5.031  0.00  0.00    +0.156 A 
ATOM     14  C   UNL     1     -36.697   0.500  -3.022  0.00  0.00    +0.151 A 
ATOM     15  C   UNL     1     -38.691   0.112  -6.646  0.00  0.00    +0.139 A 
ATOM     16  F   UNL     1     -36.975  -1.762  -2.347  0.00  0.00    -0.204 F 
ATOM     17  N   UNL     1     -36.881   1.471  -3.890  0.00  0.00    -0.233 NA
ATOM     18  N   UNL     1     -37.852   2.088  -6.083  0.00  0.00    -0.260 N 
ATOM     19  N   UNL     1     -38.554   1.354  -7.044  0.00  0.00    -0.168 NA
ATOM     20  H   UNL     1     -37.628   3.030  -6.152  0.00  0.00    +0.191 HD
ENDBRANCH   1  15
BRANCH   8  21
ATOM     21  C   UNL     1     -42.543  -2.829  -5.510  0.00  0.00    +0.089 C 
ATOM     22  C   UNL     1     -41.793  -3.654  -4.469  0.00  0.00    +0.121 C 
ATOM     23  C   UNL     1     -42.763  -4.464  -3.604  0.00  0.00    +0.008 C 
ATOM     24  C   UNL     1     -43.578  -5.391  -4.538  0.00  0.00    -0.003 C 
ATOM     25  C   UNL     1     -44.341  -4.551  -5.598  0.00  0.00    -0.002 C 
ATOM     26  C   UNL     1     -44.055  -3.044  -5.397  0.00  0.00    +0.013 C 
ATOM     27  C   UNL     1     -44.495  -2.670  -3.977  0.00  0.00    +0.006 C 
ATOM     28  C   UNL     1     -43.744  -3.495  -2.936  0.00  0.00    +0.005 C 
ATOM     29  C   UNL     1     -43.151  -5.421  -6.006  0.00  0.00    +0.008 C 
BRANCH  22  30
ATOM     30  C   UNL     1     -40.996  -2.730  -3.585  0.00  0.00    +0.310 C 
ATOM     31  O   UNL     1     -40.229  -3.185  -2.770  0.00  0.00    -0.251 OA
BRANCH  30  32
ATOM     32  O   UNL     1     -41.140  -1.400  -3.703  0.00  0.00    -0.480 OA
ATOM     33  H   UNL     1     -41.941  -1.009  -3.328  0.00  0.00    +0.295 HD
ENDBRANCH  30  32
ENDBRANCH  22  30
ENDBRANCH   8  21
TORSDOF 4
ENDMDL
