MODEL 1
REMARK VINA RESULT:   -12.058      0.000      0.000
REMARK INTER + INTRA:         -14.315
REMARK INTER:                 -13.383
REMARK INTRA:                  -0.932
REMARK UNBOUND:                -0.142
REMARK  Name = saida/ligands/A1JV9_ref.pdb
REMARK  3 active torsions:
REMARK  status: ('A' for Active; 'I' for Inactive)
REMARK    1  A    between atoms: C10_6  and  _20
REMARK    2  A    between atoms: C17_10  and  N16_25
REMARK    3  A    between atoms: C18_11  and  C28_19
REMARK                            x       y       z     vdW  Elec       q    Type
REMARK                         _______ _______ _______ _____ _____    ______ ____
ROOT
ATOM      1  C10 A1J   501     -37.967  -1.750  -2.832  0.00  0.00    +0.183 A 
ATOM      2  C12 A1J   501     -38.723  -3.603  -1.858  0.00  0.00    +0.133 A 
ATOM      3  C13 A1J   501     -39.334  -4.022  -3.032  0.00  0.00    +0.192 A 
ATOM      4  C14 A1J   501     -39.219  -3.163  -4.167  0.00  0.00    +0.178 A 
ATOM      5  F31 A1J   501     -40.025  -5.144  -3.194  0.00  0.00    -0.200 F 
ATOM      6  N11 A1J   501     -38.069  -2.495  -1.708  0.00  0.00    -0.221 NA
ATOM      7  N15 A1J   501     -38.524  -2.083  -4.010  0.00  0.00    -0.206 NA
ATOM      8  N16 A1J   501     -39.786  -3.618  -5.333  0.00  0.00    -0.220 NA
ENDROOT
BRANCH   1  14
ATOM      9   C1 A1J   501     -37.268   1.965  -5.627  0.00  0.00    +0.159 A 
ATOM     10   C2 A1J   501     -37.729   0.742  -5.048  0.00  0.00    +0.036 A 
ATOM     11   C3 A1J   501     -37.164   0.528  -3.755  0.00  0.00    +0.062 A 
ATOM     12   C4 A1J   501     -36.275   1.426  -3.197  0.00  0.00    +0.185 A 
ATOM     13   C6 A1J   501     -36.389   2.834  -4.985  0.00  0.00    +0.130 A 
ATOM     14   C9 A1J   501     -37.235  -0.577  -2.738  0.00  0.00    +0.142 A 
ATOM     15  F32 A1J   501     -37.752   2.293  -6.830  0.00  0.00    -0.203 F 
ATOM     16   N5 A1J   501     -35.882   2.570  -3.806  0.00  0.00    -0.221 NA
ATOM     17   N7 A1J   501     -35.900   0.949  -1.973  0.00  0.00    -0.128 NA
ATOM     18   N8 A1J   501     -36.496  -0.250  -1.717  0.00  0.00    -0.143 NA
ENDBRANCH   1  14
BRANCH   8  19
ATOM     19  C17 A1J   501     -39.680  -2.717  -6.551  0.00  0.00    +0.105 C 
ATOM     20  C18 A1J   501     -40.913  -2.740  -7.421  0.00  0.00    +0.123 C 
ATOM     21  C19 A1J   501     -40.648  -3.098  -8.931  0.00  0.00    +0.012 C 
ATOM     22  C20 A1J   501     -39.852  -4.448  -9.199  0.00  0.00    +0.001 C 
ATOM     23  C21 A1J   501     -38.596  -4.472  -8.294  0.00  0.00    +0.002 C 
ATOM     24  C22 A1J   501     -38.477  -3.166  -7.498  0.00  0.00    +0.021 C 
ATOM     25  C23 A1J   501     -38.430  -1.958  -8.461  0.00  0.00    +0.002 C 
ATOM     26  C24 A1J   501     -39.692  -2.020  -9.445  0.00  0.00    +0.001 C 
ATOM     27  C25 A1J   501     -39.687  -5.496  -8.064  0.00  0.00    +0.000 C 
BRANCH  20  28
ATOM     28  C28 A1J   501     -41.830  -1.545  -7.358  0.00  0.00    +0.366 C 
ATOM     29  O29 A1J   501     -43.017  -1.651  -7.606  0.00  0.00    -0.246 OA
ATOM     30  O30 A1J   501     -41.275  -0.453  -6.964  0.00  0.00    -0.246 OA
ENDBRANCH  20  28
ENDBRANCH   8  19
TORSDOF 3
ENDMDL
MODEL 2
REMARK VINA RESULT:    -9.728      2.975      5.102
REMARK INTER + INTRA:         -11.576
REMARK INTER:                 -10.625
REMARK INTRA:                  -0.951
REMARK UNBOUND:                -0.142
REMARK  Name = saida/ligands/A1JV9_ref.pdb
REMARK  3 active torsions:
REMARK  status: ('A' for Active; 'I' for Inactive)
REMARK    1  A    between atoms: C10_6  and  _20
REMARK    2  A    between atoms: C17_10  and  N16_25
REMARK    3  A    between atoms: C18_11  and  C28_19
REMARK                            x       y       z     vdW  Elec       q    Type
REMARK                         _______ _______ _______ _____ _____    ______ ____
ROOT
ATOM      1  C10 A1J   501     -40.074  -3.834  -1.996  0.00  0.00    +0.183 A 
ATOM      2  C12 A1J   501     -40.544  -5.803  -2.921  0.00  0.00    +0.133 A 
ATOM      3  C13 A1J   501     -40.486  -5.264  -4.200  0.00  0.00    +0.192 A 
ATOM      4  C14 A1J   501     -40.204  -3.868  -4.304  0.00  0.00    +0.178 A 
ATOM      5  F31 A1J   501     -40.680  -5.925  -5.334  0.00  0.00    -0.200 F 
ATOM      6  N11 A1J   501     -40.375  -5.141  -1.821  0.00  0.00    -0.221 NA
ATOM      7  N15 A1J   501     -39.993  -3.233  -3.196  0.00  0.00    -0.206 NA
ATOM      8  N16 A1J   501     -40.100  -3.363  -5.578  0.00  0.00    -0.220 NA
ENDROOT
BRANCH   1  14
ATOM      9   C1 A1J   501     -42.519  -2.838   1.895  0.00  0.00    +0.159 A 
ATOM     10   C2 A1J   501     -42.072  -3.367   0.644  0.00  0.00    +0.036 A 
ATOM     11   C3 A1J   501     -40.756  -2.915   0.323  0.00  0.00    +0.062 A 
ATOM     12   C4 A1J   501     -40.062  -2.060   1.156  0.00  0.00    +0.185 A 
ATOM     13   C6 A1J   501     -41.744  -2.000   2.693  0.00  0.00    +0.130 A 
ATOM     14   C9 A1J   501     -39.834  -3.091  -0.851  0.00  0.00    +0.142 A 
ATOM     15  F32 A1J   501     -43.729  -3.214   2.321  0.00  0.00    -0.203 F 
ATOM     16   N5 A1J   501     -40.551  -1.596   2.332  0.00  0.00    -0.221 NA
ATOM     17   N7 A1J   501     -38.851  -1.796   0.582  0.00  0.00    -0.128 NA
ATOM     18   N8 A1J   501     -38.734  -2.433  -0.617  0.00  0.00    -0.143 NA
ENDBRANCH   1  14
BRANCH   8  19
ATOM     19  C17 A1J   501     -39.806  -1.879  -5.711  0.00  0.00    +0.105 C 
ATOM     20  C18 A1J   501     -40.579  -1.214  -6.825  0.00  0.00    +0.123 C 
ATOM     21  C19 A1J   501     -39.693  -0.444  -7.873  0.00  0.00    +0.012 C 
ATOM     22  C20 A1J   501     -38.517  -1.280  -8.543  0.00  0.00    +0.001 C 
ATOM     23  C21 A1J   501     -37.724  -2.003  -7.428  0.00  0.00    +0.002 C 
ATOM     24  C22 A1J   501     -38.267  -1.623  -6.044  0.00  0.00    +0.021 C 
ATOM     25  C23 A1J   501     -38.203  -0.092  -5.850  0.00  0.00    +0.002 C 
ATOM     26  C24 A1J   501     -38.948   0.626  -7.072  0.00  0.00    +0.001 C 
ATOM     27  C25 A1J   501     -38.500  -2.830  -8.433  0.00  0.00    +0.000 C 
BRANCH  20  28
ATOM     28  C28 A1J   501     -41.744  -0.341  -6.436  0.00  0.00    +0.366 C 
ATOM     29  O29 A1J   501     -41.858   0.085  -5.302  0.00  0.00    -0.246 OA
ATOM     30  O30 A1J   501     -42.543  -0.039  -7.399  0.00  0.00    -0.246 OA
ENDBRANCH  20  28
ENDBRANCH   8  19
TORSDOF 3
ENDMDL
MODEL 3
REMARK VINA RESULT:    -9.604      3.413      5.308
REMARK INTER + INTRA:         -11.431
REMARK INTER:                 -10.354
REMARK INTRA:                  -1.077
REMARK UNBOUND:                -0.142
REMARK  Name = saida/ligands/A1JV9_ref.pdb
REMARK  3 active torsions:
REMARK  status: ('A' for Active; 'I' for Inactive)
REMARK    1  A    between atoms: C10_6  and  _20
REMARK    2  A    between atoms: C17_10  and  N16_25
REMARK    3  A    between atoms: C18_11  and  C28_19
REMARK                            x       y       z     vdW  Elec       q    Type
REMARK                         _______ _______ _______ _____ _____    ______ ____
ROOT
ATOM      1  C10 A1J   501     -41.910  -4.828  -3.943  0.00  0.00    +0.183 A 
ATOM      2  C12 A1J   501     -42.709  -5.868  -5.742  0.00  0.00    +0.133 A 
ATOM      3  C13 A1J   501     -42.208  -4.885  -6.585  0.00  0.00    +0.192 A 
ATOM      4  C14 A1J   501     -41.517  -3.795  -5.974  0.00  0.00    +0.178 A 
ATOM      5  F31 A1J   501     -42.323  -4.860  -7.908  0.00  0.00    -0.200 F 
ATOM      6  N11 A1J   501     -42.609  -5.869  -4.450  0.00  0.00    -0.221 NA
ATOM      7  N15 A1J   501     -41.388  -3.837  -4.688  0.00  0.00    -0.206 NA
ATOM      8  N16 A1J   501     -40.985  -2.858  -6.827  0.00  0.00    -0.220 NA
ENDROOT
BRANCH   1  14
ATOM      9   C1 A1J   501     -39.131  -2.451  -0.989  0.00  0.00    +0.159 A 
ATOM     10   C2 A1J   501     -39.822  -2.938  -2.141  0.00  0.00    +0.036 A 
ATOM     11   C3 A1J   501     -40.787  -3.932  -1.794  0.00  0.00    +0.062 A 
ATOM     12   C4 A1J   501     -40.969  -4.336  -0.486  0.00  0.00    +0.185 A 
ATOM     13   C6 A1J   501     -39.394  -2.893   0.306  0.00  0.00    +0.130 A 
ATOM     14   C9 A1J   501     -41.730  -4.808  -2.570  0.00  0.00    +0.142 A 
ATOM     15  F32 A1J   501     -38.219  -1.491  -1.182  0.00  0.00    -0.203 F 
ATOM     16   N5 A1J   501     -40.274  -3.828   0.561  0.00  0.00    -0.221 NA
ATOM     17   N7 A1J   501     -41.939  -5.297  -0.469  0.00  0.00    -0.128 NA
ATOM     18   N8 A1J   501     -42.387  -5.557  -1.730  0.00  0.00    -0.143 NA
ENDBRANCH   1  14
BRANCH   8  19
ATOM     19  C17 A1J   501     -40.251  -1.687  -6.198  0.00  0.00    +0.105 C 
ATOM     20  C18 A1J   501     -40.458  -0.386  -6.935  0.00  0.00    +0.123 C 
ATOM     21  C19 A1J   501     -39.132   0.339  -7.376  0.00  0.00    +0.012 C 
ATOM     22  C20 A1J   501     -38.110  -0.532  -8.229  0.00  0.00    +0.001 C 
ATOM     23  C21 A1J   501     -37.902  -1.891  -7.517  0.00  0.00    +0.002 C 
ATOM     24  C22 A1J   501     -38.674  -1.931  -6.191  0.00  0.00    +0.021 C 
ATOM     25  C23 A1J   501     -38.228  -0.766  -5.280  0.00  0.00    +0.002 C 
ATOM     26  C24 A1J   501     -38.364   0.613  -6.083  0.00  0.00    +0.001 C 
ATOM     27  C25 A1J   501     -38.572  -1.868  -8.875  0.00  0.00    +0.000 C 
BRANCH  20  28
ATOM     28  C28 A1J   501     -41.381   0.627  -6.308  0.00  0.00    +0.366 C 
ATOM     29  O29 A1J   501     -41.621   1.684  -6.862  0.00  0.00    -0.246 OA
ATOM     30  O30 A1J   501     -41.928   0.255  -5.205  0.00  0.00    -0.246 OA
ENDBRANCH  20  28
ENDBRANCH   8  19
TORSDOF 3
ENDMDL
MODEL 4
REMARK VINA RESULT:    -9.098      3.386      7.537
REMARK INTER + INTRA:         -10.836
REMARK INTER:                 -10.130
REMARK INTRA:                  -0.706
REMARK UNBOUND:                -0.142
REMARK  Name = saida/ligands/A1JV9_ref.pdb
REMARK  3 active torsions:
REMARK  status: ('A' for Active; 'I' for Inactive)
REMARK    1  A    between atoms: C10_6  and  _20
REMARK    2  A    between atoms: C17_10  and  N16_25
REMARK    3  A    between atoms: C18_11  and  C28_19
REMARK                            x       y       z     vdW  Elec       q    Type
REMARK                         _______ _______ _______ _____ _____    ______ ____
ROOT
ATOM      1  C10 A1J   501     -41.362  -2.511  -7.624  0.00  0.00    +0.183 A 
ATOM      2  C12 A1J   501     -41.914  -0.359  -7.756  0.00  0.00    +0.133 A 
ATOM      3  C13 A1J   501     -41.764  -0.193  -6.385  0.00  0.00    +0.192 A 
ATOM      4  C14 A1J   501     -41.391  -1.344  -5.628  0.00  0.00    +0.178 A 
ATOM      5  F31 A1J   501     -41.948   0.937  -5.712  0.00  0.00    -0.200 F 
ATOM      6  N11 A1J   501     -41.752  -1.473  -8.397  0.00  0.00    -0.221 NA
ATOM      7  N15 A1J   501     -41.190  -2.436  -6.292  0.00  0.00    -0.206 NA
ATOM      8  N16 A1J   501     -41.198  -1.149  -4.281  0.00  0.00    -0.220 NA
ENDROOT
BRANCH   1  14
ATOM      9   C1 A1J   501     -40.737  -6.959  -6.235  0.00  0.00    +0.159 A 
ATOM     10   C2 A1J   501     -41.000  -5.555  -6.289  0.00  0.00    +0.036 A 
ATOM     11   C3 A1J   501     -40.982  -5.069  -7.631  0.00  0.00    +0.062 A 
ATOM     12   C4 A1J   501     -40.722  -5.905  -8.699  0.00  0.00    +0.185 A 
ATOM     13   C6 A1J   501     -40.510  -7.740  -7.366  0.00  0.00    +0.130 A 
ATOM     14   C9 A1J   501     -41.127  -3.715  -8.268  0.00  0.00    +0.142 A 
ATOM     15  F32 A1J   501     -40.757  -7.540  -5.030  0.00  0.00    -0.203 F 
ATOM     16   N5 A1J   501     -40.479  -7.232  -8.572  0.00  0.00    -0.221 NA
ATOM     17   N7 A1J   501     -40.758  -5.158  -9.843  0.00  0.00    -0.128 NA
ATOM     18   N8 A1J   501     -41.012  -3.849  -9.559  0.00  0.00    -0.143 NA
ENDBRANCH   1  14
BRANCH   8  19
ATOM     19  C17 A1J   501     -40.806  -2.362  -3.456  0.00  0.00    +0.105 C 
ATOM     20  C18 A1J   501     -40.475  -2.028  -2.022  0.00  0.00    +0.123 C 
ATOM     21  C19 A1J   501     -39.058  -2.515  -1.542  0.00  0.00    +0.012 C 
ATOM     22  C20 A1J   501     -37.822  -2.058  -2.433  0.00  0.00    +0.001 C 
ATOM     23  C21 A1J   501     -38.144  -2.356  -3.918  0.00  0.00    +0.002 C 
ATOM     24  C22 A1J   501     -39.500  -3.063  -4.046  0.00  0.00    +0.021 C 
ATOM     25  C23 A1J   501     -39.500  -4.368  -3.218  0.00  0.00    +0.002 C 
ATOM     26  C24 A1J   501     -39.068  -4.035  -1.712  0.00  0.00    +0.001 C 
ATOM     27  C25 A1J   501     -37.990  -0.916  -3.474  0.00  0.00    +0.000 C 
BRANCH  20  28
ATOM     28  C28 A1J   501     -41.495  -2.387  -0.972  0.00  0.00    +0.366 C 
ATOM     29  O29 A1J   501     -41.406  -1.956   0.163  0.00  0.00    -0.246 OA
ATOM     30  O30 A1J   501     -42.473  -3.111  -1.389  0.00  0.00    -0.246 OA
ENDBRANCH  20  28
ENDBRANCH   8  19
TORSDOF 3
ENDMDL
