MODEL 1
REMARK VINA RESULT:   -11.294      0.000      0.000
REMARK INTER + INTRA:         -14.302
REMARK INTER:                 -13.378
REMARK INTRA:                  -0.925
REMARK UNBOUND:                -1.028
REMARK  Name = saida/ligands/A1JV9_ref.pdb
REMARK  3 active torsions:
REMARK  status: ('A' for Active; 'I' for Inactive)
REMARK    1  A    between atoms: C10_6  and  _20
REMARK    2  A    between atoms: C17_10  and  N16_25
REMARK    3  A    between atoms: C18_11  and  C28_19
REMARK                            x       y       z     vdW  Elec       q    Type
REMARK                         _______ _______ _______ _____ _____    ______ ____
ROOT
ATOM      1  C10 A1J   501     -37.944  -1.740  -2.866  0.00  0.00    +0.183 A 
ATOM      2  C12 A1J   501     -38.704  -3.583  -1.875  0.00  0.00    +0.133 A 
ATOM      3  C13 A1J   501     -39.321  -4.008  -3.044  0.00  0.00    +0.192 A 
ATOM      4  C14 A1J   501     -39.206  -3.157  -4.186  0.00  0.00    +0.178 A 
ATOM      5  F31 A1J   501     -40.018  -5.128  -3.195  0.00  0.00    -0.200 F 
ATOM      6  N11 A1J   501     -38.045  -2.475  -1.736  0.00  0.00    -0.221 NA
ATOM      7  N15 A1J   501     -38.506  -2.079  -4.040  0.00  0.00    -0.206 NA
ATOM      8  N16 A1J   501     -39.780  -3.619  -5.347  0.00  0.00    -0.220 NA
ENDROOT
BRANCH   1  14
ATOM      9   C1 A1J   501     -37.284   1.977  -5.669  0.00  0.00    +0.159 A 
ATOM     10   C2 A1J   501     -37.738   0.754  -5.083  0.00  0.00    +0.036 A 
ATOM     11   C3 A1J   501     -37.150   0.537  -3.800  0.00  0.00    +0.062 A 
ATOM     12   C4 A1J   501     -36.249   1.431  -3.257  0.00  0.00    +0.185 A 
ATOM     13   C6 A1J   501     -36.391   2.842  -5.041  0.00  0.00    +0.130 A 
ATOM     14   C9 A1J   501     -37.207  -0.570  -2.784  0.00  0.00    +0.142 A 
ATOM     15  F32 A1J   501     -37.789   2.309  -6.862  0.00  0.00    -0.203 F 
ATOM     16   N5 A1J   501     -35.863   2.575  -3.872  0.00  0.00    -0.221 NA
ATOM     17   N7 A1J   501     -35.853   0.951  -2.041  0.00  0.00    -0.128 NA
ATOM     18   N8 A1J   501     -36.448  -0.246  -1.776  0.00  0.00    -0.143 NA
ENDBRANCH   1  14
BRANCH   8  19
ATOM     19  C17 A1J   501     -39.674  -2.728  -6.571  0.00  0.00    +0.105 C 
ATOM     20  C18 A1J   501     -40.911  -2.753  -7.437  0.00  0.00    +0.123 C 
ATOM     21  C19 A1J   501     -40.652  -3.123  -8.945  0.00  0.00    +0.012 C 
ATOM     22  C20 A1J   501     -39.861  -4.479  -9.206  0.00  0.00    +0.001 C 
ATOM     23  C21 A1J   501     -38.603  -4.500  -8.305  0.00  0.00    +0.002 C 
ATOM     24  C22 A1J   501     -38.477  -3.189  -7.519  0.00  0.00    +0.021 C 
ATOM     25  C23 A1J   501     -38.428  -1.989  -8.491  0.00  0.00    +0.002 C 
ATOM     26  C24 A1J   501     -39.693  -2.054  -9.471  0.00  0.00    +0.001 C 
ATOM     27  C25 A1J   501     -39.697  -5.519  -8.063  0.00  0.00    +0.000 C 
BRANCH  20  28
ATOM     28  C28 A1J   501     -41.823  -1.554  -7.380  0.00  0.00    +0.366 C 
ATOM     29  O29 A1J   501     -43.012  -1.659  -7.618  0.00  0.00    -0.246 OA
ATOM     30  O30 A1J   501     -41.260  -0.460  -7.003  0.00  0.00    -0.246 OA
ENDBRANCH  20  28
ENDBRANCH   8  19
TORSDOF 3
ENDMDL
MODEL 2
REMARK VINA RESULT:    -9.000      2.975      5.092
REMARK INTER + INTRA:         -11.607
REMARK INTER:                 -10.640
REMARK INTRA:                  -0.967
REMARK UNBOUND:                -1.028
REMARK  Name = saida/ligands/A1JV9_ref.pdb
REMARK  3 active torsions:
REMARK  status: ('A' for Active; 'I' for Inactive)
REMARK    1  A    between atoms: C10_6  and  _20
REMARK    2  A    between atoms: C17_10  and  N16_25
REMARK    3  A    between atoms: C18_11  and  C28_19
REMARK                            x       y       z     vdW  Elec       q    Type
REMARK                         _______ _______ _______ _____ _____    ______ ____
ROOT
ATOM      1  C10 A1J   501     -40.022  -3.818  -1.989  0.00  0.00    +0.183 A 
ATOM      2  C12 A1J   501     -40.444  -5.810  -2.889  0.00  0.00    +0.133 A 
ATOM      3  C13 A1J   501     -40.388  -5.289  -4.174  0.00  0.00    +0.192 A 
ATOM      4  C14 A1J   501     -40.135  -3.889  -4.298  0.00  0.00    +0.178 A 
ATOM      5  F31 A1J   501     -40.559  -5.971  -5.300  0.00  0.00    -0.200 F 
ATOM      6  N11 A1J   501     -40.297  -5.128  -1.797  0.00  0.00    -0.221 NA
ATOM      7  N15 A1J   501     -39.945  -3.234  -3.198  0.00  0.00    -0.206 NA
ATOM      8  N16 A1J   501     -40.032  -3.401  -5.578  0.00  0.00    -0.220 NA
ENDROOT
BRANCH   1  14
ATOM      9   C1 A1J   501     -42.524  -2.798   1.858  0.00  0.00    +0.159 A 
ATOM     10   C2 A1J   501     -42.056  -3.341   0.621  0.00  0.00    +0.036 A 
ATOM     11   C3 A1J   501     -40.744  -2.873   0.306  0.00  0.00    +0.062 A 
ATOM     12   C4 A1J   501     -40.072  -1.994   1.133  0.00  0.00    +0.185 A 
ATOM     13   C6 A1J   501     -41.771  -1.935   2.651  0.00  0.00    +0.130 A 
ATOM     14   C9 A1J   501     -39.806  -3.053  -0.855  0.00  0.00    +0.142 A 
ATOM     15  F32 A1J   501     -43.733  -3.187   2.278  0.00  0.00    -0.203 F 
ATOM     16   N5 A1J   501     -40.581  -1.519   2.296  0.00  0.00    -0.221 NA
ATOM     17   N7 A1J   501     -38.859  -1.720   0.568  0.00  0.00    -0.128 NA
ATOM     18   N8 A1J   501     -38.719  -2.374  -0.620  0.00  0.00    -0.143 NA
ENDBRANCH   1  14
BRANCH   8  19
ATOM     19  C17 A1J   501     -39.769  -1.913  -5.732  0.00  0.00    +0.105 C 
ATOM     20  C18 A1J   501     -40.557  -1.279  -6.853  0.00  0.00    +0.123 C 
ATOM     21  C19 A1J   501     -39.688  -0.505  -7.913  0.00  0.00    +0.012 C 
ATOM     22  C20 A1J   501     -38.497  -1.326  -8.575  0.00  0.00    +0.001 C 
ATOM     23  C21 A1J   501     -37.688  -2.018  -7.451  0.00  0.00    +0.002 C 
ATOM     24  C22 A1J   501     -38.236  -1.631  -6.071  0.00  0.00    +0.021 C 
ATOM     25  C23 A1J   501     -38.202  -0.096  -5.898  0.00  0.00    +0.002 C 
ATOM     26  C24 A1J   501     -38.964   0.590  -7.128  0.00  0.00    +0.001 C 
ATOM     27  C25 A1J   501     -38.448  -2.873  -8.443  0.00  0.00    +0.000 C 
BRANCH  20  28
ATOM     28  C28 A1J   501     -41.739  -0.424  -6.474  0.00  0.00    +0.366 C 
ATOM     29  O29 A1J   501     -41.892  -0.038  -5.330  0.00  0.00    -0.246 OA
ATOM     30  O30 A1J   501     -42.507  -0.094  -7.451  0.00  0.00    -0.246 OA
ENDBRANCH  20  28
ENDBRANCH   8  19
TORSDOF 3
ENDMDL
MODEL 3
REMARK VINA RESULT:    -8.714      3.595      5.619
REMARK INTER + INTRA:         -11.271
REMARK INTER:                 -10.188
REMARK INTRA:                  -1.083
REMARK UNBOUND:                -1.028
REMARK  Name = saida/ligands/A1JV9_ref.pdb
REMARK  3 active torsions:
REMARK  status: ('A' for Active; 'I' for Inactive)
REMARK    1  A    between atoms: C10_6  and  _20
REMARK    2  A    between atoms: C17_10  and  N16_25
REMARK    3  A    between atoms: C18_11  and  C28_19
REMARK                            x       y       z     vdW  Elec       q    Type
REMARK                         _______ _______ _______ _____ _____    ______ ____
ROOT
ATOM      1  C10 A1J   501     -42.712  -4.098  -3.816  0.00  0.00    +0.183 A 
ATOM      2  C12 A1J   501     -43.491  -5.179  -5.599  0.00  0.00    +0.133 A 
ATOM      3  C13 A1J   501     -42.748  -4.382  -6.459  0.00  0.00    +0.192 A 
ATOM      4  C14 A1J   501     -41.947  -3.358  -5.868  0.00  0.00    +0.178 A 
ATOM      5  F31 A1J   501     -42.722  -4.477  -7.784  0.00  0.00    -0.200 F 
ATOM      6  N11 A1J   501     -43.523  -5.061  -4.309  0.00  0.00    -0.221 NA
ATOM      7  N15 A1J   501     -41.957  -3.286  -4.577  0.00  0.00    -0.206 NA
ATOM      8  N16 A1J   501     -41.180  -2.613  -6.731  0.00  0.00    -0.220 NA
ENDROOT
BRANCH   1  14
ATOM      9   C1 A1J   501     -39.341  -3.219  -0.659  0.00  0.00    +0.159 A 
ATOM     10   C2 A1J   501     -40.084  -3.418  -1.864  0.00  0.00    +0.036 A 
ATOM     11   C3 A1J   501     -41.468  -3.644  -1.595  0.00  0.00    +0.062 A 
ATOM     12   C4 A1J   501     -41.959  -3.667  -0.305  0.00  0.00    +0.185 A 
ATOM     13   C6 A1J   501     -39.918  -3.230   0.608  0.00  0.00    +0.130 A 
ATOM     14   C9 A1J   501     -42.672  -3.963  -2.438  0.00  0.00    +0.142 A 
ATOM     15  F32 A1J   501     -38.033  -2.967  -0.782  0.00  0.00    -0.203 F 
ATOM     16   N5 A1J   501     -41.192  -3.469   0.795  0.00  0.00    -0.221 NA
ATOM     17   N7 A1J   501     -43.301  -3.915  -0.364  0.00  0.00    -0.128 NA
ATOM     18   N8 A1J   501     -43.707  -4.080  -1.655  0.00  0.00    -0.143 NA
ENDBRANCH   1  14
BRANCH   8  19
ATOM     19  C17 A1J   501     -40.325  -1.515  -6.124  0.00  0.00    +0.105 C 
ATOM     20  C18 A1J   501     -40.334  -0.237  -6.927  0.00  0.00    +0.123 C 
ATOM     21  C19 A1J   501     -38.911   0.290  -7.343  0.00  0.00    +0.012 C 
ATOM     22  C20 A1J   501     -37.978  -0.745  -8.109  0.00  0.00    +0.001 C 
ATOM     23  C21 A1J   501     -37.974  -2.082  -7.328  0.00  0.00    +0.002 C 
ATOM     24  C22 A1J   501     -38.795  -1.957  -6.037  0.00  0.00    +0.021 C 
ATOM     25  C23 A1J   501     -38.236  -0.814  -5.161  0.00  0.00    +0.002 C 
ATOM     26  C24 A1J   501     -38.163   0.529  -6.030  0.00  0.00    +0.001 C 
ATOM     27  C25 A1J   501     -38.584  -2.042  -8.714  0.00  0.00    +0.000 C 
BRANCH  20  28
ATOM     28  C28 A1J   501     -41.142   0.916  -6.388  0.00  0.00    +0.366 C 
ATOM     29  O29 A1J   501     -41.099   2.012  -6.915  0.00  0.00    -0.246 OA
ATOM     30  O30 A1J   501     -41.907   0.627  -5.396  0.00  0.00    -0.246 OA
ENDBRANCH  20  28
ENDBRANCH   8  19
TORSDOF 3
ENDMDL
MODEL 4
REMARK VINA RESULT:    -8.459      3.487      4.434
REMARK INTER + INTRA:         -10.971
REMARK INTER:                 -10.184
REMARK INTRA:                  -0.787
REMARK UNBOUND:                -1.028
REMARK  Name = saida/ligands/A1JV9_ref.pdb
REMARK  3 active torsions:
REMARK  status: ('A' for Active; 'I' for Inactive)
REMARK    1  A    between atoms: C10_6  and  _20
REMARK    2  A    between atoms: C17_10  and  N16_25
REMARK    3  A    between atoms: C18_11  and  C28_19
REMARK                            x       y       z     vdW  Elec       q    Type
REMARK                         _______ _______ _______ _____ _____    ______ ____
ROOT
ATOM      1  C10 A1J   501     -40.831  -4.114  -2.675  0.00  0.00    +0.183 A 
ATOM      2  C12 A1J   501     -42.371  -5.663  -3.106  0.00  0.00    +0.133 A 
ATOM      3  C13 A1J   501     -42.376  -5.342  -4.457  0.00  0.00    +0.192 A 
ATOM      4  C14 A1J   501     -41.511  -4.286  -4.878  0.00  0.00    +0.178 A 
ATOM      5  F31 A1J   501     -43.121  -5.919  -5.392  0.00  0.00    -0.200 F 
ATOM      6  N11 A1J   501     -41.654  -5.076  -2.200  0.00  0.00    -0.221 NA
ATOM      7  N15 A1J   501     -40.770  -3.744  -3.966  0.00  0.00    -0.206 NA
ATOM      8  N16 A1J   501     -41.492  -4.017  -6.225  0.00  0.00    -0.220 NA
ENDROOT
BRANCH   1  14
ATOM      9   C1 A1J   501     -41.520  -1.377   1.085  0.00  0.00    +0.159 A 
ATOM     10   C2 A1J   501     -41.689  -2.234  -0.047  0.00  0.00    +0.036 A 
ATOM     11   C3 A1J   501     -40.432  -2.659  -0.575  0.00  0.00    +0.062 A 
ATOM     12   C4 A1J   501     -39.237  -2.245  -0.020  0.00  0.00    +0.185 A 
ATOM     13   C6 A1J   501     -40.275  -1.027   1.603  0.00  0.00    +0.130 A 
ATOM     14   C9 A1J   501     -40.006  -3.489  -1.753  0.00  0.00    +0.142 A 
ATOM     15  F32 A1J   501     -42.629  -0.935   1.689  0.00  0.00    -0.203 F 
ATOM     16   N5 A1J   501     -39.154  -1.428   1.058  0.00  0.00    -0.221 NA
ATOM     17   N7 A1J   501     -38.218  -2.799  -0.741  0.00  0.00    -0.128 NA
ATOM     18   N8 A1J   501     -38.705  -3.548  -1.770  0.00  0.00    -0.143 NA
ENDBRANCH   1  14
BRANCH   8  19
ATOM     19  C17 A1J   501     -40.583  -2.895  -6.694  0.00  0.00    +0.105 C 
ATOM     20  C18 A1J   501     -41.106  -2.169  -7.910  0.00  0.00    +0.123 C 
ATOM     21  C19 A1J   501     -40.105  -2.111  -9.123  0.00  0.00    +0.012 C 
ATOM     22  C20 A1J   501     -39.523  -3.507  -9.616  0.00  0.00    +0.001 C 
ATOM     23  C21 A1J   501     -39.008  -4.292  -8.386  0.00  0.00    +0.002 C 
ATOM     24  C22 A1J   501     -39.147  -3.452  -7.110  0.00  0.00    +0.021 C 
ATOM     25  C23 A1J   501     -38.378  -2.120  -7.264  0.00  0.00    +0.002 C 
ATOM     26  C24 A1J   501     -38.867  -1.382  -8.599  0.00  0.00    +0.001 C 
ATOM     27  C25 A1J   501     -40.189  -4.835  -9.163  0.00  0.00    +0.000 C 
BRANCH  20  28
ATOM     28  C28 A1J   501     -41.697  -0.799  -7.699  0.00  0.00    +0.366 C 
ATOM     29  O29 A1J   501     -42.675  -0.435  -8.325  0.00  0.00    -0.246 OA
ATOM     30  O30 A1J   501     -41.133  -0.099  -6.779  0.00  0.00    -0.246 OA
ENDBRANCH  20  28
ENDBRANCH   8  19
TORSDOF 3
ENDMDL
MODEL 5
REMARK VINA RESULT:    -8.354      3.430      7.559
REMARK INTER + INTRA:         -10.848
REMARK INTER:                 -10.146
REMARK INTRA:                  -0.702
REMARK UNBOUND:                -1.028
REMARK  Name = saida/ligands/A1JV9_ref.pdb
REMARK  3 active torsions:
REMARK  status: ('A' for Active; 'I' for Inactive)
REMARK    1  A    between atoms: C10_6  and  _20
REMARK    2  A    between atoms: C17_10  and  N16_25
REMARK    3  A    between atoms: C18_11  and  C28_19
REMARK                            x       y       z     vdW  Elec       q    Type
REMARK                         _______ _______ _______ _____ _____    ______ ____
ROOT
ATOM      1  C10 A1J   501     -41.349  -2.576  -7.645  0.00  0.00    +0.183 A 
ATOM      2  C12 A1J   501     -41.842  -0.410  -7.791  0.00  0.00    +0.133 A 
ATOM      3  C13 A1J   501     -41.724  -0.248  -6.417  0.00  0.00    +0.192 A 
ATOM      4  C14 A1J   501     -41.400  -1.408  -5.651  0.00  0.00    +0.178 A 
ATOM      5  F31 A1J   501     -41.896   0.886  -5.748  0.00  0.00    -0.200 F 
ATOM      6  N11 A1J   501     -41.692  -1.529  -8.428  0.00  0.00    -0.221 NA
ATOM      7  N15 A1J   501     -41.209  -2.505  -6.310  0.00  0.00    -0.206 NA
ATOM      8  N16 A1J   501     -41.237  -1.218  -4.299  0.00  0.00    -0.220 NA
ENDROOT
BRANCH   1  14
ATOM      9   C1 A1J   501     -40.703  -7.013  -6.231  0.00  0.00    +0.159 A 
ATOM     10   C2 A1J   501     -40.965  -5.609  -6.292  0.00  0.00    +0.036 A 
ATOM     11   C3 A1J   501     -40.972  -5.134  -7.638  0.00  0.00    +0.062 A 
ATOM     12   C4 A1J   501     -40.733  -5.979  -8.704  0.00  0.00    +0.185 A 
ATOM     13   C6 A1J   501     -40.498  -7.804  -7.360  0.00  0.00    +0.130 A 
ATOM     14   C9 A1J   501     -41.128  -3.785  -8.284  0.00  0.00    +0.142 A 
ATOM     15  F32 A1J   501     -40.700  -7.584  -5.022  0.00  0.00    -0.203 F 
ATOM     16   N5 A1J   501     -40.490  -7.306  -8.571  0.00  0.00    -0.221 NA
ATOM     17   N7 A1J   501     -40.791  -5.242  -9.853  0.00  0.00    -0.128 NA
ATOM     18   N8 A1J   501     -41.037  -3.931  -9.576  0.00  0.00    -0.143 NA
ENDBRANCH   1  14
BRANCH   8  19
ATOM     19  C17 A1J   501     -40.897  -2.439  -3.465  0.00  0.00    +0.105 C 
ATOM     20  C18 A1J   501     -40.617  -2.116  -2.017  0.00  0.00    +0.123 C 
ATOM     21  C19 A1J   501     -39.228  -2.629  -1.484  0.00  0.00    +0.012 C 
ATOM     22  C20 A1J   501     -37.951  -2.188  -2.324  0.00  0.00    +0.001 C 
ATOM     23  C21 A1J   501     -38.219  -2.476  -3.822  0.00  0.00    +0.002 C 
ATOM     24  C22 A1J   501     -39.580  -3.160  -4.006  0.00  0.00    +0.021 C 
ATOM     25  C23 A1J   501     -39.634  -4.467  -3.184  0.00  0.00    +0.002 C 
ATOM     26  C24 A1J   501     -39.256  -4.147  -1.661  0.00  0.00    +0.001 C 
ATOM     27  C25 A1J   501     -38.060  -1.040  -3.366  0.00  0.00    +0.000 C 
BRANCH  20  28
ATOM     28  C28 A1J   501     -41.683  -2.463  -1.010  0.00  0.00    +0.366 C 
ATOM     29  O29 A1J   501     -41.635  -2.034   0.128  0.00  0.00    -0.246 OA
ATOM     30  O30 A1J   501     -42.653  -3.175  -1.467  0.00  0.00    -0.246 OA
ENDBRANCH  20  28
ENDBRANCH   8  19
TORSDOF 3
ENDMDL
