MODEL 1
REMARK VINA RESULT:   -11.294      0.000      0.000
REMARK INTER + INTRA:         -14.302
REMARK INTER:                 -13.378
REMARK INTRA:                  -0.925
REMARK UNBOUND:                -1.028
REMARK  Name = saida/ligands/A1JV9_ref.pdb
REMARK  3 active torsions:
REMARK  status: ('A' for Active; 'I' for Inactive)
REMARK    1  A    between atoms: C10_6  and  _20
REMARK    2  A    between atoms: C17_10  and  N16_25
REMARK    3  A    between atoms: C18_11  and  C28_19
REMARK                            x       y       z     vdW  Elec       q    Type
REMARK                         _______ _______ _______ _____ _____    ______ ____
ROOT
ATOM      1  C10 A1J   501     -37.944  -1.740  -2.866  0.00  0.00    +0.183 A 
ATOM      2  C12 A1J   501     -38.704  -3.583  -1.875  0.00  0.00    +0.133 A 
ATOM      3  C13 A1J   501     -39.321  -4.008  -3.044  0.00  0.00    +0.192 A 
ATOM      4  C14 A1J   501     -39.206  -3.157  -4.186  0.00  0.00    +0.178 A 
ATOM      5  F31 A1J   501     -40.018  -5.128  -3.195  0.00  0.00    -0.200 F 
ATOM      6  N11 A1J   501     -38.045  -2.475  -1.736  0.00  0.00    -0.221 NA
ATOM      7  N15 A1J   501     -38.506  -2.079  -4.040  0.00  0.00    -0.206 NA
ATOM      8  N16 A1J   501     -39.780  -3.619  -5.347  0.00  0.00    -0.220 NA
ENDROOT
BRANCH   1  14
ATOM      9   C1 A1J   501     -37.284   1.977  -5.669  0.00  0.00    +0.159 A 
ATOM     10   C2 A1J   501     -37.738   0.754  -5.083  0.00  0.00    +0.036 A 
ATOM     11   C3 A1J   501     -37.150   0.537  -3.800  0.00  0.00    +0.062 A 
ATOM     12   C4 A1J   501     -36.249   1.431  -3.257  0.00  0.00    +0.185 A 
ATOM     13   C6 A1J   501     -36.391   2.842  -5.041  0.00  0.00    +0.130 A 
ATOM     14   C9 A1J   501     -37.207  -0.570  -2.784  0.00  0.00    +0.142 A 
ATOM     15  F32 A1J   501     -37.789   2.309  -6.862  0.00  0.00    -0.203 F 
ATOM     16   N5 A1J   501     -35.863   2.575  -3.872  0.00  0.00    -0.221 NA
ATOM     17   N7 A1J   501     -35.853   0.951  -2.041  0.00  0.00    -0.128 NA
ATOM     18   N8 A1J   501     -36.448  -0.246  -1.776  0.00  0.00    -0.143 NA
ENDBRANCH   1  14
BRANCH   8  19
ATOM     19  C17 A1J   501     -39.674  -2.728  -6.571  0.00  0.00    +0.105 C 
ATOM     20  C18 A1J   501     -40.911  -2.753  -7.437  0.00  0.00    +0.123 C 
ATOM     21  C19 A1J   501     -40.652  -3.123  -8.945  0.00  0.00    +0.012 C 
ATOM     22  C20 A1J   501     -39.861  -4.479  -9.206  0.00  0.00    +0.001 C 
ATOM     23  C21 A1J   501     -38.603  -4.500  -8.305  0.00  0.00    +0.002 C 
ATOM     24  C22 A1J   501     -38.477  -3.189  -7.519  0.00  0.00    +0.021 C 
ATOM     25  C23 A1J   501     -38.428  -1.989  -8.491  0.00  0.00    +0.002 C 
ATOM     26  C24 A1J   501     -39.693  -2.054  -9.471  0.00  0.00    +0.001 C 
ATOM     27  C25 A1J   501     -39.697  -5.519  -8.063  0.00  0.00    +0.000 C 
BRANCH  20  28
ATOM     28  C28 A1J   501     -41.823  -1.554  -7.380  0.00  0.00    +0.366 C 
ATOM     29  O29 A1J   501     -43.012  -1.659  -7.618  0.00  0.00    -0.246 OA
ATOM     30  O30 A1J   501     -41.260  -0.460  -7.003  0.00  0.00    -0.246 OA
ENDBRANCH  20  28
ENDBRANCH   8  19
TORSDOF 3
ENDMDL
