MODEL 1
REMARK VINA RESULT:   -12.058      0.000      0.000
REMARK INTER + INTRA:         -14.315
REMARK INTER:                 -13.383
REMARK INTRA:                  -0.932
REMARK UNBOUND:                -0.142
REMARK  Name = saida/ligands/A1JV9_ref.pdb
REMARK  3 active torsions:
REMARK  status: ('A' for Active; 'I' for Inactive)
REMARK    1  A    between atoms: C10_6  and  _20
REMARK    2  A    between atoms: C17_10  and  N16_25
REMARK    3  A    between atoms: C18_11  and  C28_19
REMARK                            x       y       z     vdW  Elec       q    Type
REMARK                         _______ _______ _______ _____ _____    ______ ____
ROOT
ATOM      1  C10 A1J   501     -37.967  -1.750  -2.832  0.00  0.00    +0.183 A 
ATOM      2  C12 A1J   501     -38.723  -3.603  -1.858  0.00  0.00    +0.133 A 
ATOM      3  C13 A1J   501     -39.334  -4.022  -3.032  0.00  0.00    +0.192 A 
ATOM      4  C14 A1J   501     -39.219  -3.163  -4.167  0.00  0.00    +0.178 A 
ATOM      5  F31 A1J   501     -40.025  -5.144  -3.194  0.00  0.00    -0.200 F 
ATOM      6  N11 A1J   501     -38.069  -2.495  -1.708  0.00  0.00    -0.221 NA
ATOM      7  N15 A1J   501     -38.524  -2.083  -4.010  0.00  0.00    -0.206 NA
ATOM      8  N16 A1J   501     -39.786  -3.618  -5.333  0.00  0.00    -0.220 NA
ENDROOT
BRANCH   1  14
ATOM      9   C1 A1J   501     -37.268   1.965  -5.627  0.00  0.00    +0.159 A 
ATOM     10   C2 A1J   501     -37.729   0.742  -5.048  0.00  0.00    +0.036 A 
ATOM     11   C3 A1J   501     -37.164   0.528  -3.755  0.00  0.00    +0.062 A 
ATOM     12   C4 A1J   501     -36.275   1.426  -3.197  0.00  0.00    +0.185 A 
ATOM     13   C6 A1J   501     -36.389   2.834  -4.985  0.00  0.00    +0.130 A 
ATOM     14   C9 A1J   501     -37.235  -0.577  -2.738  0.00  0.00    +0.142 A 
ATOM     15  F32 A1J   501     -37.752   2.293  -6.830  0.00  0.00    -0.203 F 
ATOM     16   N5 A1J   501     -35.882   2.570  -3.806  0.00  0.00    -0.221 NA
ATOM     17   N7 A1J   501     -35.900   0.949  -1.973  0.00  0.00    -0.128 NA
ATOM     18   N8 A1J   501     -36.496  -0.250  -1.717  0.00  0.00    -0.143 NA
ENDBRANCH   1  14
BRANCH   8  19
ATOM     19  C17 A1J   501     -39.680  -2.717  -6.551  0.00  0.00    +0.105 C 
ATOM     20  C18 A1J   501     -40.913  -2.740  -7.421  0.00  0.00    +0.123 C 
ATOM     21  C19 A1J   501     -40.648  -3.098  -8.931  0.00  0.00    +0.012 C 
ATOM     22  C20 A1J   501     -39.852  -4.448  -9.199  0.00  0.00    +0.001 C 
ATOM     23  C21 A1J   501     -38.596  -4.472  -8.294  0.00  0.00    +0.002 C 
ATOM     24  C22 A1J   501     -38.477  -3.166  -7.498  0.00  0.00    +0.021 C 
ATOM     25  C23 A1J   501     -38.430  -1.958  -8.461  0.00  0.00    +0.002 C 
ATOM     26  C24 A1J   501     -39.692  -2.020  -9.445  0.00  0.00    +0.001 C 
ATOM     27  C25 A1J   501     -39.687  -5.496  -8.064  0.00  0.00    +0.000 C 
BRANCH  20  28
ATOM     28  C28 A1J   501     -41.830  -1.545  -7.358  0.00  0.00    +0.366 C 
ATOM     29  O29 A1J   501     -43.017  -1.651  -7.606  0.00  0.00    -0.246 OA
ATOM     30  O30 A1J   501     -41.275  -0.453  -6.964  0.00  0.00    -0.246 OA
ENDBRANCH  20  28
ENDBRANCH   8  19
TORSDOF 3
ENDMDL
